System: uname_result(system='Linux', node='Quantum', release='6.17.0-14-generic', version='#14~24.04.1-Ubuntu SMP PREEMPT_DYNAMIC Thu Jan 15 15:52:10 UTC 2', machine='x86_64')  Threads 24
Python 3.11.0 | packaged by conda-forge | (main, Jan 14 2023, 12:27:40) [GCC 11.3.0]
numpy 2.4.2  scipy 1.17.0  h5py 3.15.1
Date: Thu Feb 19 15:20:47 2026
PySCF version 2.12.1
PySCF path  /home/ross/Software/miniconda/envs/AUTOCAS/lib/python3.11/site-packages/pyscf

[ENV] PYSCF_TMPDIR /big/scratch/pyscf
[CONFIG] conf_file None
[INPUT] verbose = 6
[INPUT] max_memory = 100 
[INPUT] num. atoms = 55
[INPUT] num. electrons = 242
[INPUT] charge = 0
[INPUT] spin (= nelec alpha-beta = 2S) = 0
[INPUT] symmetry False subgroup None
[INPUT] Mole.unit = Ang
[INPUT] Symbol           X                Y                Z      unit          X                Y                Z       unit  Magmom
[INPUT]  1 C     48.304001000000  82.334000000000  38.831001000000 AA   91.281332610717 155.588710739940  73.379957032712 Bohr   0.0
[INPUT]  2 C     48.926998000000  81.214996000000  37.964001000000 AA   92.458626317143 153.474099647647  71.741564482714 Bohr   0.0
[INPUT]  3 C     49.191002000000  80.010002000000  38.830002000000 AA   92.957521572932 151.196991005903  73.378069196314 Bohr   0.0
[INPUT]  4 N     50.513000000000  79.638000000000  39.112999000000 AA   95.455735730155 150.494009108112  73.912856020387 Bohr   0.0
[INPUT]  5 C     50.859001000000  78.314003000000  39.622002000000 AA   96.109582858981 147.992017388367  74.874732286969 Bohr   0.0
[INPUT]  6 C     50.230000000000  77.148003000000  38.789001000000 AA   94.920943236903 145.788596727124  73.300588535480 Bohr   0.0
[INPUT]  7 N     49.966999000000  76.052002000000  39.569000000000 AA   94.423943376416 143.717455004874  74.774573022915 Bohr   0.0
[INPUT]  8 C     49.744999000000  74.776001000000  38.998001000000 AA   94.004424176763 141.306162580203  73.695541295514 Bohr   0.0
[INPUT]  9 C     51.153000000000  74.147003000000  38.827999000000 AA   96.665160449877 140.117528627304  73.374284074886 Bohr   0.0
[INPUT] 10 C     51.292000000000  72.727997000000  38.223999000000 AA   96.927832381191 137.435995918189  72.232889495649 Bohr   0.0
[INPUT] 11 C     52.061001000000  71.695000000000  38.799000000000 AA   98.381033660708 135.483914500692  73.319483907000 Bohr   0.0
[INPUT] 12 C     51.884998000000  70.514999000000  37.965000000000 AA   98.048436193606 133.254035783979  71.743452319113 Bohr   0.0
[INPUT] 13 C     52.176998000000  69.130997000000  38.245998000000 AA   98.600236221979 130.638651048129  72.274461580663 Bohr   0.0
[INPUT] 14 C     52.972000000000  68.719002000000  39.458000000000 AA  100.102572270460 129.860093333439  74.564813423088 Bohr   0.0
[INPUT] 15 C     52.790001000000  68.919998000000  40.747002000000 AA   99.758644005516 130.239920725572  77.000674177105 Bohr   0.0
[INPUT] 16 C     51.779999000000  69.577003000000  41.452000000000 AA   97.850016840253 131.481480238042  78.332927315471 Bohr   0.0
[INPUT] 17 C     51.921001000000  69.444000000000  42.855999000000 AA   98.116472003269 131.230140994296  80.986100904634 Bohr   0.0
[INPUT] 18 C     53.134998000000  68.879997000000  43.457001000000 AA  100.410593849312 130.164329790863  82.121830084950 Bohr   0.0
[INPUT] 19 N     54.014999000000  68.154999000000  42.667000000000 AA  102.073554728656 128.794282130006  80.628944556818 Bohr   0.0
[INPUT] 20 N     53.796001000000  68.224998000000  41.340000000000 AA  101.659708486828 128.926561068999  78.121277989520 Bohr   0.0
[INPUT] 21 N     54.599998000000  67.521004000000  40.509998000000 AA  103.179042621800 127.596205215662  76.552801526678 Bohr   0.0
[INPUT] 22 C     54.132999000000  67.806000000000  39.293999000000 AA  102.296542411354 128.134769602259  74.254896448933 Bohr   0.0
[INPUT] 23 H     54.577999000000  67.372002000000  38.408001000000 AA  103.137470536786 127.314632243650  72.580602882021 Bohr   0.0
[INPUT] 24 H     53.252998000000  68.875999000000  44.533001000000 AA  100.633581532011 130.156774665817  84.155175394982 Bohr   0.0
[INPUT] 25 H     51.243000000000  69.962997000000  43.522999000000 AA   96.835235801087 132.210903183767  82.246548229719 Bohr   0.0
[INPUT] 26 H     50.957001000000  70.106003000000  40.985001000000 AA   96.294776019188 132.481145357937  77.450427105025 Bohr   0.0
[INPUT] 27 C     51.696999000000  68.206001000000  37.337002000000 AA   97.693169571914 128.890661941811  70.556708092338 Bohr   0.0
[INPUT] 28 C     50.956001000000  68.733002000000  36.200001000000 AA   96.292886293063 129.886549499183  68.408087598981 Bohr   0.0
[INPUT] 29 N     50.645000000000  70.013000000000  35.981998000000 AA   95.705179578598 132.305395159174  67.996121634648 Bohr   0.0
[INPUT] 30 C     51.062000000000  70.892998000000  36.884998000000 AA   96.493195372541 133.968350369339  69.702544325130 Bohr   0.0
[INPUT] 31 N     50.787998000000  72.241997000000  37.016998000000 AA   95.975406634958 136.517589021651  69.951988173573 Bohr   0.0
[INPUT] 32 H     50.278000000000  72.744003000000  36.305000000000 AA   95.011650090882 137.466242874539  68.606506952335 Bohr   0.0
[INPUT] 33 H     50.644001000000  68.017998000000  35.439999000000 AA   95.703291742199 128.535387761214  66.971891964860 Bohr   0.0
[INPUT] 34 Cl    52.063999000000  66.491997000000  37.480999000000 AA   98.386699059629 125.651663805402  70.828822985097 Bohr   0.0
[INPUT] 35 H     52.578999000000  71.834000000000  39.741001000000 AA   99.359908013780 135.746586432007  75.099607806066 Bohr   0.0
[INPUT] 36 H     51.623001000000  74.123001000000  39.819000000000 AA   97.553333618148 140.072171420862  75.247004554056 Bohr   0.0
[INPUT] 37 H     51.745998000000  74.836998000000  38.214001000000 AA   97.785764262291 141.421430204623  72.213996013855 Bohr   0.0
[INPUT] 38 H     49.205002000000  74.931999000000  38.056999000000 AA   92.983977738676 141.600956076183  71.917305232846 Bohr   0.0
[INPUT] 39 H     49.089001000000  74.150002000000  39.617001000000 AA   92.764767618500 140.123195915952  74.865281766620 Bohr   0.0
[INPUT] 40 H     49.895000000000  76.105003000000  40.577999000000 AA   94.287884985174 143.817612379202  76.681304792875 Bohr   0.0
[INPUT] 41 O     50.216000000000  77.134003000000  37.542000000000 AA   94.894487071159 145.762140561380  70.944098168422 Bohr   0.0
[INPUT] 42 C     52.416000000000  78.224998000000  39.567001000000 AA   99.051884545202 147.823822314650  74.770795460392 Bohr   0.0
[INPUT] 43 C     52.966999000000  79.611000000000  39.289001000000 AA  100.093121750112 150.442986502749  74.245451597763 Bohr   0.0
[INPUT] 44 C     51.752998000000  80.297997000000  38.665001000000 AA   97.798992345163 151.741222681147  73.066262496034 Bohr   0.0
[INPUT] 45 H     51.851002000000  80.208000000000  37.576000000000 AA   97.984193064275 151.571152999114  71.008348856657 Bohr   0.0
[INPUT] 46 H     51.780998000000  81.364998000000  38.919998000000 AA   97.851904676651 153.757562345784  73.548136988620 Bohr   0.0
[INPUT] 47 H     53.861000000000  79.653999000000  38.653999000000 AA  101.782538795199 150.524242836379  73.045471729212 Bohr   0.0
[INPUT] 48 H     53.152000000000  80.039001000000  40.282001000000 AA  100.442722972882 151.251791173789  76.121949639456 Bohr   0.0
[INPUT] 49 H     52.716000000000  77.467003000000  38.834000000000 AA   99.618802382572 146.391419360860  73.385624321360 Bohr   0.0
[INPUT] 50 H     52.784000000000  77.889000000000  40.543999000000 AA   99.747303759042 147.188878116248  76.617054104640 Bohr   0.0
[INPUT] 51 H     50.521999000000  78.165001000000  40.654999000000 AA   95.472741375550 147.710444416354  76.826813704466 Bohr   0.0
[INPUT] 52 O     48.243000000000  79.397003000000  39.367001000000 AA   91.166057427392 150.038590781271  74.392850235479 Bohr   0.0
[INPUT] 53 H     49.748001000000  81.601997000000  37.348999000000 AA   94.010097134589 154.205425547580  70.579379136654 Bohr   0.0
[INPUT] 54 H     48.512001000000  82.193001000000  39.897999000000 AA   91.674395644626 155.322261246102  75.396291028171 Bohr   0.0
[INPUT] 55 H     47.213001000000  82.390999000000  38.729000000000 AA   89.219641408816 155.696423239314  73.187203078280 Bohr   0.0
[INPUT] ---------------- BASIS SET ---------------- 
[INPUT] l, kappa, [nprim/nctr], expnt,             c_1 c_2 ...
[INPUT] N
[INPUT] 0    0    [3    /1   ]  99.106169         0.15432897
                                18.052312         0.53532814
                                4.8856602         0.44463454
[INPUT] 0    0    [3    /1   ]  3.7804559         -0.09996723
                                0.8784966         0.39951283
                                0.2857144         0.70011547
[INPUT] 1    0    [3    /1   ]  3.7804559         0.15591627
                                0.8784966         0.60768372
                                0.2857144         0.39195739
[INPUT] O
[INPUT] 0    0    [3    /1   ]  130.70932         0.15432897
                                23.808861         0.53532814
                                6.4436083         0.44463454
[INPUT] 0    0    [3    /1   ]  5.0331513         -0.09996723
                                1.1695961         0.39951283
                                0.380389          0.70011547
[INPUT] 1    0    [3    /1   ]  5.0331513         0.15591627
                                1.1695961         0.60768372
                                0.380389          0.39195739
[INPUT] C
[INPUT] 0    0    [3    /1   ]  71.616837         0.15432897
                                13.045096         0.53532814
                                3.5305122         0.44463454
[INPUT] 0    0    [3    /1   ]  2.9412494         -0.09996723
                                0.6834831         0.39951283
                                0.2222899         0.70011547
[INPUT] 1    0    [3    /1   ]  2.9412494         0.15591627
                                0.6834831         0.60768372
                                0.2222899         0.39195739
[INPUT] H
[INPUT] 0    0    [3    /1   ]  3.42525091        0.15432897
                                0.62391373        0.53532814
                                0.1688554         0.44463454
[INPUT] Cl
[INPUT] 0    0    [3    /1   ]  601.3456136       0.1543289673
                                109.5358542       0.5353281423
                                29.64467686       0.4446345422
[INPUT] 0    0    [3    /1   ]  38.96041889       -0.09996722919
                                9.053563477       0.3995128261
                                2.944499834       0.7001154689
[INPUT] 0    0    [3    /1   ]  2.129386495       -0.219620369
                                0.5940934274      0.2255954336
                                0.232524141       0.900398426
[INPUT] 1    0    [3    /1   ]  38.96041889       0.155916275
                                9.053563477       0.6076837186
                                2.944499834       0.3919573931
[INPUT] 1    0    [3    /1   ]  2.129386495       0.01058760429
                                0.5940934274      0.5951670053
                                0.232524141       0.462001012

nuclear repulsion = 3210.86242787507
number of shells = 123
number of NR pGTOs = 573
number of NR cGTOs = 191
basis = sto-3g
ecp = {}
CPU time:         4.18
