[Molden Format]
made by pyscf v[2.12.1]
[Atoms] (AU)
C   1   6    91.28133261071687   155.58871073993981    73.37995703271204
C   2   6    92.45862631714253   153.47409964764699    71.74156448271414
C   3   6    92.95752157293221   151.19699100590285    73.37806919631360
N   4   7    95.45573573015497   150.49400910811241    73.91285602038714
C   5   6    96.10958285898060   147.99201738836663    74.87473228696913
C   6   6    94.92094323690306   145.78859672712377    73.30058853548030
N   7   7    94.42394337641632   143.71745500487432    74.77457302291494
C   8   6    94.00442417676288   141.30616258020316    73.69554129551442
C   9   6    96.66516044987661   140.11752862730401    73.37428407488609
C   10   6    96.92783238119115   137.43599591818943    72.23288949564879
C   11   6    98.38103366070780   135.48391450069209    73.31948390699984
C   12   6    98.04843619360599   133.25403578397922    71.74345231911258
C   13   6    98.60023622197897   130.63865104812891    72.27446158066310
C   14   6   100.10257227046046   129.86009333343873    74.56481342308821
C   15   6    99.75864400551573   130.23992072557184    77.00067417710483
C   16   6    97.85001684025278   131.48148023804168    78.33292731547094
C   17   6    98.11647200326870   131.23014099429616    80.98610090463416
C   18   6   100.41059384931232   130.16432979086309    82.12183008495002
N   19   7   102.07355472865569   128.79428213000568    80.62894455681750
N   20   7   101.65970848682818   128.92656106899909    78.12127798951967
N   21   7   103.17904262180012   127.59620521566205    76.55280152667841
C   22   6   102.29654241135437   128.13476960225859    74.25489644893341
H   23   1   103.13747053678581   127.31463224364958    72.58060288202101
H   24   1   100.63358153201098   130.15677466581707    84.15517539498202
H   25   1    96.83523580108746   132.21090318376704    82.24654822971905
H   26   1    96.29477601918798   132.48114535793661    77.45042710502518
C   27   6    97.69316957191387   128.89066194181072    70.55670809233796
C   28   6    96.29288629306342   129.88654949918265    68.40808759898137
N   29   7    95.70517957859757   132.30539515917368    67.99612163464781
C   30   6    96.49319537254118   133.96835036933868    69.70254432513006
N   31   7    95.97540663495812   136.51758902165082    69.95198817357264
H   32   1    95.01165009088217   137.46624287453923    68.60650695233457
H   33   1    95.70329174219913   128.53538776121414    66.97189196485967
Cl   34   17    98.38669905962927   125.65166380540171    70.82882298509695
H   35   1    99.35990801378027   135.74658643200667    75.09960780606625
H   36   1    97.55333361814832   140.07217142086222    75.24700455405620
H   37   1    97.78576426229144   141.42143020462328    72.21399601385541
H   38   1    92.98397773867612   141.60095607618311    71.91730523284643
H   39   1    92.76476761850046   140.12319591595158    74.86528176662019
H   40   1    94.28788498517376   143.81761237920239    76.68130479287495
O   41   8    94.89448707115915   145.76214056137988    70.94409816842156
C   42   6    99.05188454520227   147.82382231464970    74.77079546039192
C   43   6   100.09312175011151   150.44298650274914    74.24545159776284
C   44   6    97.79899234516340   151.74122268114695    73.06626249603423
H   45   1    97.98419306427527   151.57115299911447    71.00834885665677
H   46   1    97.85190467665122   153.75756234578401    73.54813698861996
H   47   1   101.78253879519879   150.52424283637930    73.04547172921177
H   48   1   100.44272297288217   151.25179117378912    76.12194963945595
H   49   1    99.61880238257180   146.39141936086003    73.38562432135961
H   50   1    99.74730375904223   147.18887811624811    76.61705410463973
H   51   1    95.47274137554993   147.71044441635419    76.82681370446646
O   52   8    91.16605742739229   150.03859078127059    74.39285023547892
H   53   1    94.01009713458882   154.20542554757981    70.57937913665437
H   54   1    91.67439564462640   155.32226124610224    75.39629102817071
H   55   1    89.21964140881639   155.69642323931387    73.18720307828028
[GTO]
1 0
 s    3 1.00
             71.616837    0.15432897000916
             13.045096    0.53532814003178
             3.5305122     0.4446345400264
 s    3 1.00
             2.9412494  -0.099967230075964
             0.6834831    0.39951283030359
             0.2222899    0.70011547053201
 p    3 1.00
             2.9412494    0.15591627210511
             0.6834831    0.60768372820466
             0.2222899    0.39195739529202

2 0
 s    3 1.00
             71.616837    0.15432897000916
             13.045096    0.53532814003178
             3.5305122     0.4446345400264
 s    3 1.00
             2.9412494  -0.099967230075964
             0.6834831    0.39951283030359
             0.2222899    0.70011547053201
 p    3 1.00
             2.9412494    0.15591627210511
             0.6834831    0.60768372820466
             0.2222899    0.39195739529202

3 0
 s    3 1.00
             71.616837    0.15432897000916
             13.045096    0.53532814003178
             3.5305122     0.4446345400264
 s    3 1.00
             2.9412494  -0.099967230075964
             0.6834831    0.39951283030359
             0.2222899    0.70011547053201
 p    3 1.00
             2.9412494    0.15591627210511
             0.6834831    0.60768372820466
             0.2222899    0.39195739529202

4 0
 s    3 1.00
             99.106169    0.15432897032795
             18.052312    0.53532814113758
             4.8856602    0.44463454094486
 s    3 1.00
             3.7804559  -0.099967228443697
             0.8784966    0.39951282378033
             0.2857144    0.70011545910051
 p    3 1.00
             3.7804559    0.15591626853622
             0.8784966    0.60768371429493
             0.2857144    0.39195738632021

5 0
 s    3 1.00
             71.616837    0.15432897000916
             13.045096    0.53532814003178
             3.5305122     0.4446345400264
 s    3 1.00
             2.9412494  -0.099967230075964
             0.6834831    0.39951283030359
             0.2222899    0.70011547053201
 p    3 1.00
             2.9412494    0.15591627210511
             0.6834831    0.60768372820466
             0.2222899    0.39195739529202

6 0
 s    3 1.00
             71.616837    0.15432897000916
             13.045096    0.53532814003178
             3.5305122     0.4446345400264
 s    3 1.00
             2.9412494  -0.099967230075964
             0.6834831    0.39951283030359
             0.2222899    0.70011547053201
 p    3 1.00
             2.9412494    0.15591627210511
             0.6834831    0.60768372820466
             0.2222899    0.39195739529202

7 0
 s    3 1.00
             99.106169    0.15432897032795
             18.052312    0.53532814113758
             4.8856602    0.44463454094486
 s    3 1.00
             3.7804559  -0.099967228443697
             0.8784966    0.39951282378033
             0.2857144    0.70011545910051
 p    3 1.00
             3.7804559    0.15591626853622
             0.8784966    0.60768371429493
             0.2857144    0.39195738632021

8 0
 s    3 1.00
             71.616837    0.15432897000916
             13.045096    0.53532814003178
             3.5305122     0.4446345400264
 s    3 1.00
             2.9412494  -0.099967230075964
             0.6834831    0.39951283030359
             0.2222899    0.70011547053201
 p    3 1.00
             2.9412494    0.15591627210511
             0.6834831    0.60768372820466
             0.2222899    0.39195739529202

9 0
 s    3 1.00
             71.616837    0.15432897000916
             13.045096    0.53532814003178
             3.5305122     0.4446345400264
 s    3 1.00
             2.9412494  -0.099967230075964
             0.6834831    0.39951283030359
             0.2222899    0.70011547053201
 p    3 1.00
             2.9412494    0.15591627210511
             0.6834831    0.60768372820466
             0.2222899    0.39195739529202

10 0
 s    3 1.00
             71.616837    0.15432897000916
             13.045096    0.53532814003178
             3.5305122     0.4446345400264
 s    3 1.00
             2.9412494  -0.099967230075964
             0.6834831    0.39951283030359
             0.2222899    0.70011547053201
 p    3 1.00
             2.9412494    0.15591627210511
             0.6834831    0.60768372820466
             0.2222899    0.39195739529202

11 0
 s    3 1.00
             71.616837    0.15432897000916
             13.045096    0.53532814003178
             3.5305122     0.4446345400264
 s    3 1.00
             2.9412494  -0.099967230075964
             0.6834831    0.39951283030359
             0.2222899    0.70011547053201
 p    3 1.00
             2.9412494    0.15591627210511
             0.6834831    0.60768372820466
             0.2222899    0.39195739529202

12 0
 s    3 1.00
             71.616837    0.15432897000916
             13.045096    0.53532814003178
             3.5305122     0.4446345400264
 s    3 1.00
             2.9412494  -0.099967230075964
             0.6834831    0.39951283030359
             0.2222899    0.70011547053201
 p    3 1.00
             2.9412494    0.15591627210511
             0.6834831    0.60768372820466
             0.2222899    0.39195739529202

13 0
 s    3 1.00
             71.616837    0.15432897000916
             13.045096    0.53532814003178
             3.5305122     0.4446345400264
 s    3 1.00
             2.9412494  -0.099967230075964
             0.6834831    0.39951283030359
             0.2222899    0.70011547053201
 p    3 1.00
             2.9412494    0.15591627210511
             0.6834831    0.60768372820466
             0.2222899    0.39195739529202

14 0
 s    3 1.00
             71.616837    0.15432897000916
             13.045096    0.53532814003178
             3.5305122     0.4446345400264
 s    3 1.00
             2.9412494  -0.099967230075964
             0.6834831    0.39951283030359
             0.2222899    0.70011547053201
 p    3 1.00
             2.9412494    0.15591627210511
             0.6834831    0.60768372820466
             0.2222899    0.39195739529202

15 0
 s    3 1.00
             71.616837    0.15432897000916
             13.045096    0.53532814003178
             3.5305122     0.4446345400264
 s    3 1.00
             2.9412494  -0.099967230075964
             0.6834831    0.39951283030359
             0.2222899    0.70011547053201
 p    3 1.00
             2.9412494    0.15591627210511
             0.6834831    0.60768372820466
             0.2222899    0.39195739529202

16 0
 s    3 1.00
             71.616837    0.15432897000916
             13.045096    0.53532814003178
             3.5305122     0.4446345400264
 s    3 1.00
             2.9412494  -0.099967230075964
             0.6834831    0.39951283030359
             0.2222899    0.70011547053201
 p    3 1.00
             2.9412494    0.15591627210511
             0.6834831    0.60768372820466
             0.2222899    0.39195739529202

17 0
 s    3 1.00
             71.616837    0.15432897000916
             13.045096    0.53532814003178
             3.5305122     0.4446345400264
 s    3 1.00
             2.9412494  -0.099967230075964
             0.6834831    0.39951283030359
             0.2222899    0.70011547053201
 p    3 1.00
             2.9412494    0.15591627210511
             0.6834831    0.60768372820466
             0.2222899    0.39195739529202

18 0
 s    3 1.00
             71.616837    0.15432897000916
             13.045096    0.53532814003178
             3.5305122     0.4446345400264
 s    3 1.00
             2.9412494  -0.099967230075964
             0.6834831    0.39951283030359
             0.2222899    0.70011547053201
 p    3 1.00
             2.9412494    0.15591627210511
             0.6834831    0.60768372820466
             0.2222899    0.39195739529202

19 0
 s    3 1.00
             99.106169    0.15432897032795
             18.052312    0.53532814113758
             4.8856602    0.44463454094486
 s    3 1.00
             3.7804559  -0.099967228443697
             0.8784966    0.39951282378033
             0.2857144    0.70011545910051
 p    3 1.00
             3.7804559    0.15591626853622
             0.8784966    0.60768371429493
             0.2857144    0.39195738632021

20 0
 s    3 1.00
             99.106169    0.15432897032795
             18.052312    0.53532814113758
             4.8856602    0.44463454094486
 s    3 1.00
             3.7804559  -0.099967228443697
             0.8784966    0.39951282378033
             0.2857144    0.70011545910051
 p    3 1.00
             3.7804559    0.15591626853622
             0.8784966    0.60768371429493
             0.2857144    0.39195738632021

21 0
 s    3 1.00
             99.106169    0.15432897032795
             18.052312    0.53532814113758
             4.8856602    0.44463454094486
 s    3 1.00
             3.7804559  -0.099967228443697
             0.8784966    0.39951282378033
             0.2857144    0.70011545910051
 p    3 1.00
             3.7804559    0.15591626853622
             0.8784966    0.60768371429493
             0.2857144    0.39195738632021

22 0
 s    3 1.00
             71.616837    0.15432897000916
             13.045096    0.53532814003178
             3.5305122     0.4446345400264
 s    3 1.00
             2.9412494  -0.099967230075964
             0.6834831    0.39951283030359
             0.2222899    0.70011547053201
 p    3 1.00
             2.9412494    0.15591627210511
             0.6834831    0.60768372820466
             0.2222899    0.39195739529202

23 0
 s    3 1.00
            3.42525091    0.15432897070298
            0.62391373    0.53532814243847
             0.1688554    0.44463454202535

24 0
 s    3 1.00
            3.42525091    0.15432897070298
            0.62391373    0.53532814243847
             0.1688554    0.44463454202535

25 0
 s    3 1.00
            3.42525091    0.15432897070298
            0.62391373    0.53532814243847
             0.1688554    0.44463454202535

26 0
 s    3 1.00
            3.42525091    0.15432897070298
            0.62391373    0.53532814243847
             0.1688554    0.44463454202535

27 0
 s    3 1.00
             71.616837    0.15432897000916
             13.045096    0.53532814003178
             3.5305122     0.4446345400264
 s    3 1.00
             2.9412494  -0.099967230075964
             0.6834831    0.39951283030359
             0.2222899    0.70011547053201
 p    3 1.00
             2.9412494    0.15591627210511
             0.6834831    0.60768372820466
             0.2222899    0.39195739529202

28 0
 s    3 1.00
             71.616837    0.15432897000916
             13.045096    0.53532814003178
             3.5305122     0.4446345400264
 s    3 1.00
             2.9412494  -0.099967230075964
             0.6834831    0.39951283030359
             0.2222899    0.70011547053201
 p    3 1.00
             2.9412494    0.15591627210511
             0.6834831    0.60768372820466
             0.2222899    0.39195739529202

29 0
 s    3 1.00
             99.106169    0.15432897032795
             18.052312    0.53532814113758
             4.8856602    0.44463454094486
 s    3 1.00
             3.7804559  -0.099967228443697
             0.8784966    0.39951282378033
             0.2857144    0.70011545910051
 p    3 1.00
             3.7804559    0.15591626853622
             0.8784966    0.60768371429493
             0.2857144    0.39195738632021

30 0
 s    3 1.00
             71.616837    0.15432897000916
             13.045096    0.53532814003178
             3.5305122     0.4446345400264
 s    3 1.00
             2.9412494  -0.099967230075964
             0.6834831    0.39951283030359
             0.2222899    0.70011547053201
 p    3 1.00
             2.9412494    0.15591627210511
             0.6834831    0.60768372820466
             0.2222899    0.39195739529202

31 0
 s    3 1.00
             99.106169    0.15432897032795
             18.052312    0.53532814113758
             4.8856602    0.44463454094486
 s    3 1.00
             3.7804559  -0.099967228443697
             0.8784966    0.39951282378033
             0.2857144    0.70011545910051
 p    3 1.00
             3.7804559    0.15591626853622
             0.8784966    0.60768371429493
             0.2857144    0.39195738632021

32 0
 s    3 1.00
            3.42525091    0.15432897070298
            0.62391373    0.53532814243847
             0.1688554    0.44463454202535

33 0
 s    3 1.00
            3.42525091    0.15432897070298
            0.62391373    0.53532814243847
             0.1688554    0.44463454202535

34 0
 s    3 1.00
           601.3456136    0.15432896729774
           109.5358542    0.53532814229217
           29.64467686    0.44463454219349
 s    3 1.00
           38.96041889  -0.099967229186777
           9.053563477    0.39951282608712
           2.944499834    0.70011546887743
 s    3 1.00
           2.129386495   -0.21962036900814
          0.5940934274    0.22559543360836
           0.232524141    0.90039842603337
 p    3 1.00
           38.96041889     0.1559162749995
           9.053563477    0.60768371859807
           2.944499834    0.39195739309875
 p    3 1.00
           2.129386495   0.010587604289287
          0.5940934274    0.59516700525994
           0.232524141    0.46200101196891

35 0
 s    3 1.00
            3.42525091    0.15432897070298
            0.62391373    0.53532814243847
             0.1688554    0.44463454202535

36 0
 s    3 1.00
            3.42525091    0.15432897070298
            0.62391373    0.53532814243847
             0.1688554    0.44463454202535

37 0
 s    3 1.00
            3.42525091    0.15432897070298
            0.62391373    0.53532814243847
             0.1688554    0.44463454202535

38 0
 s    3 1.00
            3.42525091    0.15432897070298
            0.62391373    0.53532814243847
             0.1688554    0.44463454202535

39 0
 s    3 1.00
            3.42525091    0.15432897070298
            0.62391373    0.53532814243847
             0.1688554    0.44463454202535

40 0
 s    3 1.00
            3.42525091    0.15432897070298
            0.62391373    0.53532814243847
             0.1688554    0.44463454202535

41 0
 s    3 1.00
             130.70932    0.15432896872316
             23.808861    0.53532813557095
             6.4436083    0.44463453632131
 s    3 1.00
             5.0331513  -0.099967228656673
             1.1695961    0.39951282463148
              0.380389    0.70011546059208
 p    3 1.00
             5.0331513    0.15591626847816
             1.1695961    0.60768371406861
              0.380389    0.39195738617424

42 0
 s    3 1.00
             71.616837    0.15432897000916
             13.045096    0.53532814003178
             3.5305122     0.4446345400264
 s    3 1.00
             2.9412494  -0.099967230075964
             0.6834831    0.39951283030359
             0.2222899    0.70011547053201
 p    3 1.00
             2.9412494    0.15591627210511
             0.6834831    0.60768372820466
             0.2222899    0.39195739529202

43 0
 s    3 1.00
             71.616837    0.15432897000916
             13.045096    0.53532814003178
             3.5305122     0.4446345400264
 s    3 1.00
             2.9412494  -0.099967230075964
             0.6834831    0.39951283030359
             0.2222899    0.70011547053201
 p    3 1.00
             2.9412494    0.15591627210511
             0.6834831    0.60768372820466
             0.2222899    0.39195739529202

44 0
 s    3 1.00
             71.616837    0.15432897000916
             13.045096    0.53532814003178
             3.5305122     0.4446345400264
 s    3 1.00
             2.9412494  -0.099967230075964
             0.6834831    0.39951283030359
             0.2222899    0.70011547053201
 p    3 1.00
             2.9412494    0.15591627210511
             0.6834831    0.60768372820466
             0.2222899    0.39195739529202

45 0
 s    3 1.00
            3.42525091    0.15432897070298
            0.62391373    0.53532814243847
             0.1688554    0.44463454202535

46 0
 s    3 1.00
            3.42525091    0.15432897070298
            0.62391373    0.53532814243847
             0.1688554    0.44463454202535

47 0
 s    3 1.00
            3.42525091    0.15432897070298
            0.62391373    0.53532814243847
             0.1688554    0.44463454202535

48 0
 s    3 1.00
            3.42525091    0.15432897070298
            0.62391373    0.53532814243847
             0.1688554    0.44463454202535

49 0
 s    3 1.00
            3.42525091    0.15432897070298
            0.62391373    0.53532814243847
             0.1688554    0.44463454202535

50 0
 s    3 1.00
            3.42525091    0.15432897070298
            0.62391373    0.53532814243847
             0.1688554    0.44463454202535

51 0
 s    3 1.00
            3.42525091    0.15432897070298
            0.62391373    0.53532814243847
             0.1688554    0.44463454202535

52 0
 s    3 1.00
             130.70932    0.15432896872316
             23.808861    0.53532813557095
             6.4436083    0.44463453632131
 s    3 1.00
             5.0331513  -0.099967228656673
             1.1695961    0.39951282463148
              0.380389    0.70011546059208
 p    3 1.00
             5.0331513    0.15591626847816
             1.1695961    0.60768371406861
              0.380389    0.39195738617424

53 0
 s    3 1.00
            3.42525091    0.15432897070298
            0.62391373    0.53532814243847
             0.1688554    0.44463454202535

54 0
 s    3 1.00
            3.42525091    0.15432897070298
            0.62391373    0.53532814243847
             0.1688554    0.44463454202535

55 0
 s    3 1.00
            3.42525091    0.15432897070298
            0.62391373    0.53532814243847
             0.1688554    0.44463454202535

[5d]
[7f]
[9g]

[MO]
 Sym= A
 Ene=               0
 Spin= Alpha
 Occup=    2.00000
   1    2.3536491390553e-12
   2    2.1702740317086e-12
   3    2.8087294745044e-12
   4    -8.2378564189823e-13
   5    9.9063047057163e-13
   6    -2.0886862620198e-11
   7    4.7525421308024e-13
   8    -9.3097211821567e-12
   9    9.7152117622101e-12
  10    -8.8748651253619e-13
  11    -2.7906134000707e-10
  12    6.8909044468186e-11
  13    2.5805088999912e-11
  14    -9.1497120650987e-11
  15    -2.9368327813513e-11
  16    3.4056951220336e-11
  17    -2.4709081510454e-10
  18    1.7055338601338e-10
  19    7.6500270083889e-11
  20    -3.3992878075721e-10
  21    1.0624891642092e-08
  22    3.0921176580328e-10
  23    -1.8431069990569e-09
  24    -5.6665814954828e-10
  25    -7.1740551275692e-10
  26    -1.7181951909047e-08
  27    -5.5948509350947e-09
  28    5.3477520704056e-09
  29    -1.1578963558081e-09
  30    -8.3971350526087e-09
  31    6.4932669321361e-09
  32    -1.8351778821112e-08
  33    -6.0748923779489e-08
  34    6.995558557748e-08
  35    -3.3696965137194e-09
  36    -6.8698811446734e-06
  37    1.4409020123246e-07
  38    3.5789084164068e-07
  39    1.0420326130833e-07
  40    -9.0165917263056e-08
  41    -3.2736908633301e-07
  42    -1.0533630002676e-06
  43    7.7721008832384e-07
  44    -2.4395684195256e-06
  45    -1.6014213563772e-06
  46    -3.0299279896075e-05
  47    -2.5004314941717e-05
  48    -1.4169069610439e-05
  49    9.4384323296106e-06
  50    -8.1109846630923e-06
  51    2.1766451580969e-06
  52    7.8103988364577e-05
  53    1.7249423307756e-05
  54    7.5685428446126e-05
  55    3.3673036021471e-05
  56    -2.3696968478102e-05
  57    1.0892944399887e-05
  58    2.6421350200454e-06
  59    1.6831533278716e-05
  60    -2.1909124818663e-05
  61    -0.00011528687021927
  62    0.00021717084363754
  63    6.7818390716469e-05
  64    -3.258160194198e-05
  65    0.00011973919739464
  66    0.0051160994645049
  67    -0.0080112985451711
  68    0.00081405001410071
  69    -0.00076855938769831
  70    -0.0044281882619518
  71      0.99201628196597
  72     0.037396630599276
  73    0.0010047670514067
  74     -0.00117120328867
  75    -0.00089563194416874
  76    0.0033339431579943
  77    -0.0066119172408821
  78    -0.003000179989775
  79    0.0020171787109398
  80    0.0021654778022772
  81    -0.001483568875546
  82    4.1014966582665e-05
  83    -0.00024908022287032
  84    0.00018718223641354
  85    0.00016137845301664
  86    -0.0040944937169408
  87    -0.00028671644061361
  88    -3.4695000043239e-05
  89    2.1624762586451e-05
  90    0.00037153988648552
  91    2.2905807726808e-05
  92    0.00016980760363963
  93    2.3423412503554e-05
  94    -1.5396225149968e-05
  95    2.6560599254594e-05
  96    0.00041871392343521
  97    -0.0067026227058434
  98     0.002868458215184
  99    -0.0019588863650304
 100    0.0014977011001959
 101    3.8936374430533e-05
 102    0.00011184157482757
 103    6.5341251672181e-05
 104    -2.7503528392461e-05
 105    -1.4802330718663e-05
 106    -0.0011659867799103
 107    -4.7691111376634e-05
 108    3.8044286276326e-05
 109    -3.7853901951866e-05
 110    -0.00039280675827138
 111    -0.00012732390367394
 112    -7.9359392196229e-05
 113    -0.00015583865577742
 114    6.5342561286846e-05
 115    8.1461355662599e-06
 116    -1.5265577297778e-05
 117    -1.4081139447779e-05
 118    -8.8651113214233e-08
 119    5.3081171932515e-06
 120    3.9194910908143e-06
 121    2.689166241029e-06
 122    3.2135771974362e-06
 123    5.3331397791853e-08
 124    1.9465379772701e-07
 125    -7.9333013464871e-08
 126    -2.643776911784e-07
 127    -6.5891222176485e-07
 128    -5.6195182052148e-07
 129    8.1900043632242e-07
 130    9.6421278333986e-05
 131    -5.1394601918388e-06
 132    -6.5061218531766e-06
 133    5.5573126676958e-07
 134    -2.8514603541323e-06
 135    -1.1654711876075e-07
 136    1.0315855846329e-06
 137    1.4825855935143e-06
 138    -7.672129053989e-07
 139    1.0542686980043e-06
 140    2.3919519589216e-07
 141    2.3268299277766e-07
 142    -8.5344929694547e-07
 143    2.1222944412414e-06
 144    7.5781150437509e-06
 145    3.9712819475521e-07
 146    -8.087850771697e-07
 147    -1.5162805265268e-06
 148    -1.4737929471089e-06
 149    5.4820843289954e-06
 150    9.4194915532085e-06
 151    -0.00021648173595749
 152    7.5330977332519e-06
 153    2.0420305754672e-07
 154    -7.1614916891325e-08
 155    4.7469559391534e-08
 156    -1.2328002467315e-07
 157    1.3030739240327e-11
 158    -1.7529550237296e-09
 159    3.1834405852606e-09
 160    -1.9458799342489e-09
 161    -1.4987172394822e-09
 162    1.7853461277516e-08
 163    1.8840228522238e-08
 164    6.1395050523282e-09
 165    -2.7639338623239e-09
 166    -5.608864224632e-09
 167    -3.7555484132785e-09
 168    -3.3663403027421e-09
 169    6.3071142297294e-10
 170    2.1944930024394e-09
 171    -2.9052472143621e-10
 172    -2.3174595072617e-11
 173    7.8645418953903e-11
 174    1.7646110808368e-10
 175    -9.9454041773377e-11
 176    8.3739877888931e-11
 177    1.1777533688263e-10
 178    -3.488810615968e-11
 179    6.8665370856215e-10
 180    1.0842984118956e-09
 181    -2.9099680530231e-08
 182    -1.2128328254074e-08
 183    6.6922556664471e-09
 184    -7.7287555454498e-12
 185    1.4387729301687e-11
 186    -1.1045889088427e-11
 187    -2.9243361904288e-11
 188    1.2718864331827e-11
 189    -3.7836852012178e-13
 190    3.1604002233606e-12
 191    -2.7236582776365e-12
 Sym= A
 Ene=               1
 Spin= Alpha
 Occup=    2.00000
   1    -1.0940598524206e-08
   2    4.4084062687299e-09
   3    -2.2798046341003e-08
   4    4.0869767325109e-10
   5    -1.575980146678e-08
   6    1.1237122863867e-08
   7    -1.1035179803801e-07
   8    5.1237663361952e-08
   9    -3.8456965364501e-08
  10    -2.50373007204e-07
  11    8.7186271658214e-06
  12    -1.5859316802797e-06
  13    -6.701737358222e-07
  14    2.098407101362e-06
  15    4.922975254317e-07
  16    -1.3607683923596e-07
  17    5.2676426405893e-06
  18    -1.4317836621701e-06
  19    -2.2709794569286e-06
  20    3.3070860692934e-06
  21    -0.00045370215765951
  22    -9.380587152281e-05
  23    4.0171531914102e-05
  24    3.4923082408097e-05
  25    1.4826723742055e-05
  26    0.0018027086736852
  27    -0.00015842883117987
  28    2.3839643534057e-05
  29    0.00030170443088034
  30    0.00013331064069087
  31    0.00045403726790799
  32    -0.0057553482156479
  33    0.00068371927256037
  34    0.0035158754180426
  35    0.0015418605299382
  36      0.99201427603858
  37      0.03693167884708
  38    -0.0001553775356393
  39    0.00072465608476757
  40    0.00021140107809101
  41    -0.0046742353642642
  42    -0.0056569818190733
  43    0.0037979782521071
  44    -0.0017309170579367
  45    -0.00044954076625394
  46    -0.00056950543958165
  47    8.122898024317e-05
  48    -4.905786895093e-05
  49    5.9137941413347e-05
  50    3.9864719228007e-05
  51    5.7600734461079e-07
  52    -3.1922174370605e-06
  53    -1.6139750555634e-05
  54    -1.3866038650496e-05
  55    -2.8949907088994e-06
  56    -2.659431192997e-06
  57    -4.1475137514747e-06
  58    1.8704066190643e-06
  59    -1.4249738311772e-06
  60    -4.0829923523274e-06
  61    1.2852608415701e-06
  62    6.0131309790537e-07
  63    -7.4140692073973e-07
  64    4.5756472459211e-07
  65    5.0045950946362e-07
  66    8.3902442364204e-08
  67    -8.4825546509729e-08
  68    1.1645411397421e-07
  69    1.5029057958114e-08
  70    -9.5495373665937e-08
  71    6.8395756411902e-06
  72    2.7911463698648e-07
  73    -3.0304960078579e-09
  74    5.8102947536363e-08
  75    -2.4734893327531e-08
  76    -3.361728816467e-06
  77    -1.3259166000531e-06
  78    7.3884553110438e-07
  79    -5.0911571226371e-07
  80    5.4193958661521e-07
  81    -1.1932581454563e-07
  82    -2.5955632947284e-08
  83    -7.0311364877531e-08
  84    2.8974503563545e-08
  85    3.2826814074918e-08
  86    1.0211814119354e-08
  87    1.2443826923031e-08
  88    -6.0391974418718e-09
  89    1.4505116029077e-08