[Molden Format]
 Molden file created by orca_2mkl for BaseName=f09_xray_cas6i5-sto3g_2
[N_ATOMS] 
55
[Atoms] (AU)
C    1   6         91.2813330627       155.5887115103        73.3799573960 
C    2   6         92.4586267749       153.4741004075        71.7415648379 
C    3   6         92.9575220332       151.1969917545        73.3780695596 
N    4   7         95.4557362028       150.4940098532        73.9128563863 
C    5   6         96.1095833348       147.9920181211        74.8747326577 
C    6   6         94.9209437069       145.7885974489        73.3005888984 
N    7   7         94.4239438439       143.7174557164        74.7745733931 
C    8   6         94.0044246422       141.3061632798        73.6955416604 
C    9   6         96.6651609285       140.1175293210        73.3742844382 
C   10   6         96.9278328611       137.4359965986        72.2328898533 
C   11   6         98.3810341478       135.4839151715        73.3194842700 
C   12   6         98.0484366791       133.2540364437        71.7434526743 
C   13   6         98.6002367102       130.6386516949        72.2744619385 
C   14   6        100.1025727661       129.8600939764        74.5648137923 
C   15   6         99.7586444994       130.2399213704        77.0006745583 
C   16   6         97.8500173247       131.4814808890        78.3329277033 
C   17   6         98.1164724891       131.2301416440        80.9861013056 
C   18   6        100.4105943465       130.1643304353        82.1218304915 
N   19   7        102.0735552340       128.7942827677        80.6289449560 
N   20   7        101.6597089902       128.9265617073        78.1212783763 
N   21   7        103.1790431326       127.5962058474        76.5528019057 
C   22   6        102.2965429178       128.1347702367        74.2548968166 
H   23   1        103.1374710474       127.3146328740        72.5806032414 
H   24   1        100.6335820303       130.1567753102        84.1551758116 
H   25   1         96.8352362805       132.2109038384        82.2465486369 
H   26   1         96.2947764960       132.4811460139        77.4504274885 
C   27   6         97.6931700556       128.8906625800        70.5567084417 
C   28   6         96.2928867698       129.8865501423        68.4080879377 
N   29   7         95.7051800524       132.3053958142        67.9961219713 
C   30   6         96.4931958503       133.9683510326        69.7025446702 
N   31   7         95.9754071101       136.5175896976        69.9519885199 
H   32   1         95.0116505613       137.4662435551        68.6065072920 
H   33   1         95.7032922160       128.5353883976        66.9718922964 
Cl  34  17         98.3866995467       125.6516644275        70.8288233358 
H   35   1         99.3599085057       135.7465871041        75.0996081779 
H   36   1         97.5533341011       140.0721721144        75.2470049266 
H   37   1         97.7857647464       141.4214309048        72.2139963714 
H   38   1         92.9839781990       141.6009567773        71.9173055889 
H   39   1         92.7647680778       140.1231966097        74.8652821373 
H   40   1         94.2878854520       143.8176130913        76.6813051725 
O   41   8         94.8944875410       145.7621412831        70.9440985197 
C   42   6         99.0518850356       147.8238230465        74.7707958306 
C   43   6        100.0931222457       150.4429872476        74.2454519654 
C   44   6         97.7989928294       151.7412234324        73.0662628578 
H   45   1         97.9841935494       151.5711537496        71.0083492082 
H   46   1         97.8519051611       153.7575631071        73.5481373528 
H   47   1        101.7825392991       150.5242435816        73.0454720909 
H   48   1        100.4427234702       151.2517919226        76.1219500163 
H   49   1         99.6188028758       146.3914200857        73.3856246847 
H   50   1         99.7473042529       147.1888788450        76.6170544840 
H   51   1         95.4727418482       147.7104451477        76.8268140848 
O   52   8         91.1660578788       150.0385915241        74.3928506038 
H   53   1         94.0100976000       154.2054263111        70.5793794861 
H   54   1         91.6743960985       155.3222620151        75.3962914015 
H   55   1         89.2196418506       155.6964240102        73.1872034406 
[GTO]
  1 0
s   3 1.0 
       71.6168370000         2.7078144539
       13.0450960000         2.6188801561
        3.5305122000         0.8161905763
s   3 1.0 
        2.9412494000        -0.1600171900
        0.6834831000         0.2140359176
        0.2222899000         0.1615360892
p   3 1.0 
        2.9412494000         0.8560445069
        0.6834831000         0.5383037696
        0.2222899000         0.0852763521

  2 0
s   3 1.0 
       71.6168370000         2.7078144539
       13.0450960000         2.6188801561
        3.5305122000         0.8161905763
s   3 1.0 
        2.9412494000        -0.1600171900
        0.6834831000         0.2140359176
        0.2222899000         0.1615360892
p   3 1.0 
        2.9412494000         0.8560445069
        0.6834831000         0.5383037696
        0.2222899000         0.0852763521

  3 0
s   3 1.0 
       71.6168370000         2.7078144539
       13.0450960000         2.6188801561
        3.5305122000         0.8161905763
s   3 1.0 
        2.9412494000        -0.1600171900
        0.6834831000         0.2140359176
        0.2222899000         0.1615360892
p   3 1.0 
        2.9412494000         0.8560445069
        0.6834831000         0.5383037696
        0.2222899000         0.0852763521

  4 0
s   3 1.0 
       99.1061690000         3.4548807944
       18.0523120000         3.3414101643
        4.8856602000         1.0413716090
s   3 1.0 
        3.7804559000        -0.1931638603
        0.8784966000         0.2583722576
        0.2857144000         0.1949974161
p   3 1.0 
        3.7804559000         1.1715524612
        0.8784966000         0.7367035994
        0.2857144000         0.1167062468

  5 0
s   3 1.0 
       71.6168370000         2.7078144539
       13.0450960000         2.6188801561
        3.5305122000         0.8161905763
s   3 1.0 
        2.9412494000        -0.1600171900
        0.6834831000         0.2140359176
        0.2222899000         0.1615360892
p   3 1.0 
        2.9412494000         0.8560445069
        0.6834831000         0.5383037696
        0.2222899000         0.0852763521

  6 0
s   3 1.0 
       71.6168370000         2.7078144539
       13.0450960000         2.6188801561
        3.5305122000         0.8161905763
s   3 1.0 
        2.9412494000        -0.1600171900
        0.6834831000         0.2140359176
        0.2222899000         0.1615360892
p   3 1.0 
        2.9412494000         0.8560445069
        0.6834831000         0.5383037696
        0.2222899000         0.0852763521

  7 0
s   3 1.0 
       99.1061690000         3.4548807944
       18.0523120000         3.3414101643
        4.8856602000         1.0413716090
s   3 1.0 
        3.7804559000        -0.1931638603
        0.8784966000         0.2583722576
        0.2857144000         0.1949974161
p   3 1.0 
        3.7804559000         1.1715524612
        0.8784966000         0.7367035994
        0.2857144000         0.1167062468

  8 0
s   3 1.0 
       71.6168370000         2.7078144539
       13.0450960000         2.6188801561
        3.5305122000         0.8161905763
s   3 1.0 
        2.9412494000        -0.1600171900
        0.6834831000         0.2140359176
        0.2222899000         0.1615360892
p   3 1.0 
        2.9412494000         0.8560445069
        0.6834831000         0.5383037696
        0.2222899000         0.0852763521

  9 0
s   3 1.0 
       71.6168370000         2.7078144539
       13.0450960000         2.6188801561
        3.5305122000         0.8161905763
s   3 1.0 
        2.9412494000        -0.1600171900
        0.6834831000         0.2140359176
        0.2222899000         0.1615360892
p   3 1.0 
        2.9412494000         0.8560445069
        0.6834831000         0.5383037696
        0.2222899000         0.0852763521

 10 0
s   3 1.0 
       71.6168370000         2.7078144539
       13.0450960000         2.6188801561
        3.5305122000         0.8161905763
s   3 1.0 
        2.9412494000        -0.1600171900
        0.6834831000         0.2140359176
        0.2222899000         0.1615360892
p   3 1.0 
        2.9412494000         0.8560445069
        0.6834831000         0.5383037696
        0.2222899000         0.0852763521

 11 0
s   3 1.0 
       71.6168370000         2.7078144539
       13.0450960000         2.6188801561
        3.5305122000         0.8161905763
s   3 1.0 
        2.9412494000        -0.1600171900
        0.6834831000         0.2140359176
        0.2222899000         0.1615360892
p   3 1.0 
        2.9412494000         0.8560445069
        0.6834831000         0.5383037696
        0.2222899000         0.0852763521

 12 0
s   3 1.0 
       71.6168370000         2.7078144539
       13.0450960000         2.6188801561
        3.5305122000         0.8161905763
s   3 1.0 
        2.9412494000        -0.1600171900
        0.6834831000         0.2140359176
        0.2222899000         0.1615360892
p   3 1.0 
        2.9412494000         0.8560445069
        0.6834831000         0.5383037696
        0.2222899000         0.0852763521

 13 0
s   3 1.0 
       71.6168370000         2.7078144539
       13.0450960000         2.6188801561
        3.5305122000         0.8161905763
s   3 1.0 
        2.9412494000        -0.1600171900
        0.6834831000         0.2140359176
        0.2222899000         0.1615360892
p   3 1.0 
        2.9412494000         0.8560445069
        0.6834831000         0.5383037696
        0.2222899000         0.0852763521

 14 0
s   3 1.0 
       71.6168370000         2.7078144539
       13.0450960000         2.6188801561
        3.5305122000         0.8161905763
s   3 1.0 
        2.9412494000        -0.1600171900
        0.6834831000         0.2140359176
        0.2222899000         0.1615360892
p   3 1.0 
        2.9412494000         0.8560445069
        0.6834831000         0.5383037696
        0.2222899000         0.0852763521

 15 0
s   3 1.0 
       71.6168370000         2.7078144539
       13.0450960000         2.6188801561
        3.5305122000         0.8161905763
s   3 1.0 
        2.9412494000        -0.1600171900
        0.6834831000         0.2140359176
        0.2222899000         0.1615360892
p   3 1.0 
        2.9412494000         0.8560445069
        0.6834831000         0.5383037696
        0.2222899000         0.0852763521

 16 0
s   3 1.0 
       71.6168370000         2.7078144539
       13.0450960000         2.6188801561
        3.5305122000         0.8161905763
s   3 1.0 
        2.9412494000        -0.1600171900
        0.6834831000         0.2140359176
        0.2222899000         0.1615360892
p   3 1.0 
        2.9412494000         0.8560445069
        0.6834831000         0.5383037696
        0.2222899000         0.0852763521

 17 0
s   3 1.0 
       71.6168370000         2.7078144539
       13.0450960000         2.6188801561
        3.5305122000         0.8161905763
s   3 1.0 
        2.9412494000        -0.1600171900
        0.6834831000         0.2140359176
        0.2222899000         0.1615360892
p   3 1.0 
        2.9412494000         0.8560445069
        0.6834831000         0.5383037696
        0.2222899000         0.0852763521

 18 0
s   3 1.0 
       71.6168370000         2.7078144539
       13.0450960000         2.6188801561
        3.5305122000         0.8161905763
s   3 1.0 
        2.9412494000        -0.1600171900
        0.6834831000         0.2140359176
        0.2222899000         0.1615360892
p   3 1.0 
        2.9412494000         0.8560445069
        0.6834831000         0.5383037696
        0.2222899000         0.0852763521

 19 0
s   3 1.0 
       99.1061690000         3.4548807944
       18.0523120000         3.3414101643
        4.8856602000         1.0413716090
s   3 1.0 
        3.7804559000        -0.1931638603
        0.8784966000         0.2583722576
        0.2857144000         0.1949974161
p   3 1.0 
        3.7804559000         1.1715524612
        0.8784966000         0.7367035994
        0.2857144000         0.1167062468

 20 0
s   3 1.0 
       99.1061690000         3.4548807944
       18.0523120000         3.3414101643
        4.8856602000         1.0413716090
s   3 1.0 
        3.7804559000        -0.1931638603
        0.8784966000         0.2583722576
        0.2857144000         0.1949974161
p   3 1.0 
        3.7804559000         1.1715524612
        0.8784966000         0.7367035994
        0.2857144000         0.1167062468

 21 0
s   3 1.0 
       99.1061690000         3.4548807944
       18.0523120000         3.3414101643
        4.8856602000         1.0413716090
s   3 1.0 
        3.7804559000        -0.1931638603
        0.8784966000         0.2583722576
        0.2857144000         0.1949974161
p   3 1.0 
        3.7804559000         1.1715524612
        0.8784966000         0.7367035994
        0.2857144000         0.1167062468

 22 0
s   3 1.0 
       71.6168370000         2.7078144539
       13.0450960000         2.6188801561
        3.5305122000         0.8161905763
s   3 1.0 
        2.9412494000        -0.1600171900
        0.6834831000         0.2140359176
        0.2222899000         0.1615360892
p   3 1.0 
        2.9412494000         0.8560445069
        0.6834831000         0.5383037696
        0.2222899000         0.0852763521

 23 0
s   3 1.0 
        3.4252509100         0.2769343610
        0.6239137300         0.2678388518
        0.1688554000         0.0834736696

 24 0
s   3 1.0 
        3.4252509100         0.2769343610
        0.6239137300         0.2678388518
        0.1688554000         0.0834736696

 25 0
s   3 1.0 
        3.4252509100         0.2769343610
        0.6239137300         0.2678388518
        0.1688554000         0.0834736696

 26 0
s   3 1.0 
        3.4252509100         0.2769343610
        0.6239137300         0.2678388518
        0.1688554000         0.0834736696

 27 0
s   3 1.0 
       71.6168370000         2.7078144539
       13.0450960000         2.6188801561
        3.5305122000         0.8161905763
s   3 1.0 
        2.9412494000        -0.1600171900
        0.6834831000         0.2140359176
        0.2222899000         0.1615360892
p   3 1.0 
        2.9412494000         0.8560445069
        0.6834831000         0.5383037696
        0.2222899000         0.0852763521

 28 0
s   3 1.0 
       71.6168370000         2.7078144539
       13.0450960000         2.6188801561
        3.5305122000         0.8161905763
s   3 1.0 
        2.9412494000        -0.1600171900
        0.6834831000         0.2140359176
        0.2222899000         0.1615360892
p   3 1.0 
        2.9412494000         0.8560445069
        0.6834831000         0.5383037696
        0.2222899000         0.0852763521

 29 0
s   3 1.0 
       99.1061690000         3.4548807944
       18.0523120000         3.3414101643
        4.8856602000         1.0413716090
s   3 1.0 
        3.7804559000        -0.1931638603
        0.8784966000         0.2583722576
        0.2857144000         0.1949974161
p   3 1.0 
        3.7804559000         1.1715524612
        0.8784966000         0.7367035994
        0.2857144000         0.1167062468

 30 0
s   3 1.0 
       71.6168370000         2.7078144539
       13.0450960000         2.6188801561
        3.5305122000         0.8161905763
s   3 1.0 
        2.9412494000        -0.1600171900
        0.6834831000         0.2140359176
        0.2222899000         0.1615360892
p   3 1.0 
        2.9412494000         0.8560445069
        0.6834831000         0.5383037696
        0.2222899000         0.0852763521

 31 0
s   3 1.0 
       99.1061690000         3.4548807944
       18.0523120000         3.3414101643
        4.8856602000         1.0413716090
s   3 1.0 
        3.7804559000        -0.1931638603
        0.8784966000         0.2583722576
        0.2857144000         0.1949974161
p   3 1.0 
        3.7804559000         1.1715524612
        0.8784966000         0.7367035994
        0.2857144000         0.1167062468

 32 0
s   3 1.0 
        3.4252509100         0.2769343610
        0.6239137300         0.2678388518
        0.1688554000         0.0834736696

 33 0
s   3 1.0 
        3.4252509100         0.2769343610
        0.6239137300         0.2678388518
        0.1688554000         0.0834736696

 34 0
s   3 1.0 
      601.3456136000        13.3567455587
      109.5358542000        12.9180628055
       29.6446768600         4.0259959284
s   3 1.0 
       38.9604188900        -1.1110547498
        9.0535634770         1.4861254857
        2.9444998340         1.1216010734
p   3 1.0 
       38.9604188900        21.6327165793
        9.0535634770        13.6032326965
        2.9444998340         2.1549806065
s   3 1.0 
        2.1293864950        -0.2759139005
        0.5940934274         0.1088006419
        0.2325241410         0.2148799310
p   3 1.0 
        2.1293864950         0.0388200338
        0.5940934274         0.4424837941
        0.2325241410         0.1063330021

 35 0
s   3 1.0 
        3.4252509100         0.2769343610
        0.6239137300         0.2678388518
        0.1688554000         0.0834736696

 36 0
s   3 1.0 
        3.4252509100         0.2769343610
        0.6239137300         0.2678388518
        0.1688554000         0.0834736696

 37 0
s   3 1.0 
        3.4252509100         0.2769343610
        0.6239137300         0.2678388518
        0.1688554000         0.0834736696

 38 0
s   3 1.0 
        3.4252509100         0.2769343610
        0.6239137300         0.2678388518
        0.1688554000         0.0834736696

 39 0
s   3 1.0 
        3.4252509100         0.2769343610
        0.6239137300         0.2678388518
        0.1688554000         0.0834736696

 40 0
s   3 1.0 
        3.4252509100         0.2769343610
        0.6239137300         0.2678388518
        0.1688554000         0.0834736696

 41 0
s   3 1.0 
      130.7093200000         4.2519432829
       23.8088610000         4.1122937184
        6.4436083000         1.2816225326
s   3 1.0 
        5.0331513000        -0.2394130030
        1.1695961000         0.3202342291
        0.3803890000         0.2416855708
p   3 1.0 
        5.0331513000         1.6754501181
        1.1695961000         1.0535680080
        0.3803890000         0.1669028981

 42 0
s   3 1.0 
       71.6168370000         2.7078144539
       13.0450960000         2.6188801561
        3.5305122000         0.8161905763
s   3 1.0 
        2.9412494000        -0.1600171900
        0.6834831000         0.2140359176
        0.2222899000         0.1615360892
p   3 1.0 
        2.9412494000         0.8560445069
        0.6834831000         0.5383037696
        0.2222899000         0.0852763521

 43 0
s   3 1.0 
       71.6168370000         2.7078144539
       13.0450960000         2.6188801561
        3.5305122000         0.8161905763
s   3 1.0 
        2.9412494000        -0.1600171900
        0.6834831000         0.2140359176
        0.2222899000         0.1615360892
p   3 1.0 
        2.9412494000         0.8560445069
        0.6834831000         0.5383037696
        0.2222899000         0.0852763521

 44 0
s   3 1.0 
       71.6168370000         2.7078144539
       13.0450960000         2.6188801561
        3.5305122000         0.8161905763
s   3 1.0 
        2.9412494000        -0.1600171900
        0.6834831000         0.2140359176
        0.2222899000         0.1615360892
p   3 1.0 
        2.9412494000         0.8560445069
        0.6834831000         0.5383037696
        0.2222899000         0.0852763521

 45 0
s   3 1.0 
        3.4252509100         0.2769343610
        0.6239137300         0.2678388518
        0.1688554000         0.0834736696

 46 0
s   3 1.0 
        3.4252509100         0.2769343610
        0.6239137300         0.2678388518
        0.1688554000         0.0834736696

 47 0
s   3 1.0 
        3.4252509100         0.2769343610
        0.6239137300         0.2678388518
        0.1688554000         0.0834736696

 48 0
s   3 1.0 
        3.4252509100         0.2769343610
        0.6239137300         0.2678388518
        0.1688554000         0.0834736696

 49 0
s   3 1.0 
        3.4252509100         0.2769343610
        0.6239137300         0.2678388518
        0.1688554000         0.0834736696

 50 0
s   3 1.0 
        3.4252509100         0.2769343610
        0.6239137300         0.2678388518
        0.1688554000         0.0834736696

 51 0
s   3 1.0 
        3.4252509100         0.2769343610
        0.6239137300         0.2678388518
        0.1688554000         0.0834736696

 52 0
s   3 1.0 
      130.7093200000         4.2519432829
       23.8088610000         4.1122937184
        6.4436083000         1.2816225326
s   3 1.0 
        5.0331513000        -0.2394130030
        1.1695961000         0.3202342291
        0.3803890000         0.2416855708
p   3 1.0 
        5.0331513000         1.6754501181
        1.1695961000         1.0535680080
        0.3803890000         0.1669028981

 53 0
s   3 1.0 
        3.4252509100         0.2769343610
        0.6239137300         0.2678388518
        0.1688554000         0.0834736696

 54 0
s   3 1.0 
        3.4252509100         0.2769343610
        0.6239137300         0.2678388518
        0.1688554000         0.0834736696

 55 0
s   3 1.0 
        3.4252509100         0.2769343610
        0.6239137300         0.2678388518
        0.1688554000         0.0834736696

[5d]
[7f]
[9g]

[MO]
 Sym=     A
 Ene= -1.03701983934558E+02
 Spin= Alpha
 Occup= 2.000000
  1       0.0000000000013800
  2      -0.0000000000028977
  3      -0.0000000000072675
  4       0.0000000000085705
  5       0.0000000000080628
  6       0.0000000000030452
  7      -0.0000000000123070
  8       0.0000000000081363
  9      -0.0000000000085731
 10      -0.0000000000108433
 11      -0.0000000000046034
 12       0.0000000000176036
 13       0.0000000000062387
 14      -0.0000000000325736
 15      -0.0000000000454998
 16       0.0000000000026586
 17      -0.0000000000142341
 18      -0.0000000000104890
 19      -0.0000000000810452
 20      -0.0000000001629300
 21      -0.0000000000039727
 22       0.0000000000049233
 23      -0.0000000000089426
 24      -0.0000000000120928
 25       0.0000000000041025
 26       0.0000000000255837
 27      -0.0000000001044725
 28       0.0000000000626923
 29       0.0000000000568321
 30       0.0000000000485738
 31      -0.0000000000555659
 32       0.0000000005588709
 33      -0.0000000001765381
 34      -0.0000000004453542
 35      -0.0000000001088250
 36       0.0000000001604060
 37      -0.0000000010744484
 38      -0.0000000005760999
 39      -0.0000000009442793
 40      -0.0000000007691701
 41       0.0000000011303123
 42      -0.0000000189934956
 43      -0.0000000032168977
 44       0.0000000103802781
 45       0.0000000020137946
 46      -0.0000000034717815
 47       0.0000000267813644
 48       0.0000000142201688
 49       0.0000000536371595
 50       0.0000000635113380
 51      -0.0000000900761162
 52       0.0000010788419694
 53       0.0000001174771126
 54      -0.0000008094369958
 55      -0.0000004461248903
 56      -0.0000006663726954
 57       0.0000020772959773
 58      -0.0000017401332761
 59      -0.0000032985129382
 60      -0.0000032541332611
 61       0.0000001214148002
 62      -0.0000107621155141
 63      -0.0000104805554444
 64       0.0000144565572430
 65      -0.0000119001409874
 66      -0.0000023509435054
 67       0.0000088232698176
 68      -0.0000108205189649
 69      -0.0000085976279343
 70      -0.0000125082929734
 71       0.0000000488471316
 72       0.0000017557151712
 73       0.0000025336218695
 74       0.0000020665377457
 75      -0.0000012030741239
 76      -0.0000000187026036
 77       0.0000002589088905
 78      -0.0000000229823795
 79      -0.0000004500029577
 80       0.0000000041979472
 81       0.0000000019279452
 82      -0.0000000385259102
 83       0.0000000027493820
 84      -0.0000000025424191
 85       0.0000000325546686
 86       0.0000000009668012
 87       0.0000000011622560
 88      -0.0000000030087787
 89      -0.0000000147241866
 90      -0.0000000004407391
 91       0.0000000058664695
 92      -0.0000000700982072
 93      -0.0000000265406735
 94      -0.0000000817075657
 95       0.0000000601984559
 96       0.0000000223587985
 97      -0.0000001708191761
 98       0.0000000865515852
 99      -0.0000000823604214
100       0.0000003296983083
101      -0.0000001572463779
102       0.0000035534513363
103       0.0000027728537669
104       0.0000042214880603
105      -0.0000025265699727
106      -0.0000029394224603
107       0.0000014542442999
108      -0.0000309021937890
109      -0.0000108279631275
110      -0.0000076381180789
111       0.0000382237025949
112      -0.0000000010696705
113       0.0000000046282242
114      -0.0000000067882971
115      -0.0000526589884396
116       0.0003741061610361
117       0.0000743508030396
118      -0.0003462857305414
119       0.0000294734728423
120       0.0000005098732123
121      -0.0000145505421395
122       0.0000044918670015
123       0.0000188012704439
124       0.0000134735495751
125      -0.0000001992060184
126      -0.0000004771658111
127       0.0000004146924669
128      -0.0000008120161539
129       0.0000005364724731
130      -0.0000003249691704
131       0.0000004310027523
132      -0.0000000025913750
133      -0.0000031445834577
134      -0.0000004231768147
135      -0.0000000852178134
136       0.0000009617995043
137       0.0000002134160615
138      -0.0000006626954536
139      -0.0000001039767344
140       0.0000000131398833
141       0.0000290718505342
142       0.9945047367926003
143       0.0157398612524732
144      -0.0000235028293980
145       0.0001109368983959
146      -0.0000091153569933
147      -0.0018062046116582
148       0.0000475064453345
149      -0.0002335723798457
150       0.0000181808374095
151       0.0000000600991230
152       0.0000000093709916
153       0.0000000011030214
154       0.0000000014325978
155       0.0000000000575386
156      -0.0000000002613796
157       0.0000000000020038
158       0.0000000000079737
159      -0.0000000000852374
160       0.0000000000622467
161       0.0000000000342906
162      -0.0000000000022935
163       0.0000000000341117
164       0.0000000000338785
165      -0.0000000000101882
166      -0.0000000000200053
167      -0.0000000000012614
168       0.0000000000017968
169      -0.0000000000067967
170       0.0000000000049179
171      -0.0000000000025628
172      -0.0000000000002977
173       0.0000000000022629
174       0.0000000000023184
175       0.0000000000009468
176       0.0000000000071948
177      -0.0000000000295473
178       0.0000000000210465
179      -0.0000000000025164
180      -0.0000000000012494
181      -0.0000000000845634
182      -0.0000000000146316
183       0.0000000000469413
184       0.0000000000008648
185      -0.0000000000042004
186       0.0000000000008527
187       0.0000000000128901
188      -0.0000000000045016
189       0.0000000000037602
190       0.0000000000039359
191       0.0000000000052366
 Sym=     1a
 Ene= -2.02742659119340E+01
 Spin= Alpha
 Occup= 2.000000
  1      -0.0000064399565687
  2       0.0000254556286432
  3       0.0000161624305600
  4      -0.0000061946227708
  5       0.0000598431248574
  6      -0.0000065073896711
  7       0.0001764802455103
  8      -0.0003272881653810
  9      -0.0001917066042045
 10       0.0001304316996217
 11       0.0005605156781575
 12      -0.0067617458167555
 13       0.0045870347923462
 14       0.0029381097521268
 15      -0.0027251162532325
 16      -0.0000207181610337
 17       0.0003105585902523
 18      -0.0003571217602667
 19      -0.0004246785812260
 20      -0.0000430335006308
 21       0.0000037457304188
 22      -0.0000469004288563
 23       0.0000522381292150
 24      -0.0000710980732717
 25       0.0000282405485579
 26       0.0000103477929031
 27      -0.0000461340112914
 28       0.0000238150265816
 29      -0.0000230689496514
 30      -0.0000508955018656
 31      -0.0000037471234430
 32       0.0000284707178881
 33       0.0000051912777819
 34       0.0000245756003115
 35      -0.0000114391443962
 36       0.0000009201524373
 37      -0.0000035500054740
 38      -0.0000007431811807
 39      -0.0000059528842236
 40      -0.0000016631452391
 41       0.0000000766464961
 42      -0.0000001790412789
 43       0.0000005351787398
 44      -0.0000001050845457
 45      -0.0000000474414797
 46       0.0000001054536262
 47      -0.0000004918629172
 48       0.0000000622623315
 49      -0.0000005568047134
 50      -0.0000001694682574
 51      -0.0000000166063027
 52       0.0000000638421998
 53       0.0000000707645537
 54       0.0000001602512298
 55      -0.0000001321550403
 56       0.0000000163115396
 57      -0.0000000752332323
 58      -0.0000000117038828
 59      -0.0000000854983196
 60      -0.0000000355229100
 61      -0.0000000085602150
 62       0.0000000378465968
 63      -0.0000000418140407
 64       0.0000000585614112
 65       0.0000000042385672
 66      -0.0000000009315291
 67       0.0000000049538768
 68       0.0000000173403809
 69      -0.0000000076394309
 70      -0.0000000006778194
 71      -0.0000000008634386
 72       0.0000000028650675
 73       0.0000000085891646
 74      -0.0000000085720103
 75       0.0000000130066732
 76      -0.0000000003632875
 77       0.0000000017736289
 78      -0.0000000127439442
 79      -0.0000000067549301
 80      -0.0000000058190187
 81       0.0000000000961869
 82      -0.0000000002274247
 83       0.0000000044201895
 84      -0.0000000093107852
 85       0.0000000080446988
 86       0.0000000002443774
 87      -0.0000000005903748
 88      -0.0000000029516249
 89       0.0000000129580854
 90      -0.0000000018731474
 91      -0.0000000022687833
 92       0.0000000120646210
 93       0.0000000254793686
 94      -0.0000000019173577
 95       0.0000000074938835