[Molden Format]
made by pyscf v[2.12.1]
[Atoms] (AU)
C   1   6    91.28133306270000   155.58871151029999    73.37995739599999
C   2   6    92.45862677490000   153.47410040750000    71.74156483790000
C   3   6    92.95752203319999   151.19699175450000    73.37806955959999
N   4   7    95.45573620279998   150.49400985320000    73.91285638630001
C   5   6    96.10958333480001   147.99201812109999    74.87473265769999
C   6   6    94.92094370690000   145.78859744889999    73.30058889839999
N   7   7    94.42394384390001   143.71745571640000    74.77457339310000
C   8   6    94.00442464219998   141.30616327979999    73.69554166040000
C   9   6    96.66516092849999   140.11752932100001    73.37428443819999
C   10   6    96.92783286109999   137.43599659860001    72.23288985329999
C   11   6    98.38103414779999   135.48391517150000    73.31948427000000
C   12   6    98.04843667909999   133.25403644369999    71.74345267430000
C   13   6    98.60023671019999   130.63865169490001    72.27446193850000
C   14   6   100.10257276610000   129.86009397640001    74.56481379230000
C   15   6    99.75864449939999   130.23992137040000    77.00067455830001
C   16   6    97.85001732470000   131.48148088900001    78.33292770330000
C   17   6    98.11647248909999   131.23014164399999    80.98610130560000
C   18   6   100.41059434649999   130.16433043530000    82.12183049150001
N   19   7   102.07355523400000   128.79428276770000    80.62894495600000
N   20   7   101.65970899020000   128.92656170730001    78.12127837630000
N   21   7   103.17904313260000   127.59620584739999    76.55280190569999
C   22   6   102.29654291780000   128.13477023670001    74.25489681660000
H   23   1   103.13747104739998   127.31463287400000    72.58060324140000
H   24   1   100.63358203030000   130.15677531020000    84.15517581160000
H   25   1    96.83523628049998   132.21090383839999    82.24654863690000
H   26   1    96.29477649600000   132.48114601389997    77.45042748849998
C   27   6    97.69317005560001   128.89066257999997    70.55670844170000
C   28   6    96.29288676979999   129.88655014230000    68.40808793770000
N   29   7    95.70518005240000   132.30539581420001    67.99612197129998
C   30   6    96.49319585030000   133.96835103260000    69.70254467020000
N   31   7    95.97540711009999   136.51758969759999    69.95198851990000
H   32   1    95.01165056130000   137.46624355509999    68.60650729200000
H   33   1    95.70329221599999   128.53538839760000    66.97189229640000
Cl   34   17    98.38669954670000   125.65166442749999    70.82882333580000
H   35   1    99.35990850569999   135.74658710410000    75.09960817790000
H   36   1    97.55333410110001   140.07217211439999    75.24700492660000
H   37   1    97.78576474640001   141.42143090479996    72.21399637140000
H   38   1    92.98397819899999   141.60095677730001    71.91730558890001
H   39   1    92.76476807780000   140.12319660969999    74.86528213730000
H   40   1    94.28788545200000   143.81761309129996    76.68130517250000
O   41   8    94.89448754100000   145.76214128309999    70.94409851970001
C   42   6    99.05188503559999   147.82382304650000    74.77079583059999
C   43   6   100.09312224570000   150.44298724760000    74.24545196539998
C   44   6    97.79899282940001   151.74122343240001    73.06626285780000
H   45   1    97.98419354940000   151.57115374959997    71.00834920820000
H   46   1    97.85190516109999   153.75756310710000    73.54813735279998
H   47   1   101.78253929909999   150.52424358159999    73.04547209090001
H   48   1   100.44272347019998   151.25179192260001    76.12195001630000
H   49   1    99.61880287580000   146.39142008569999    73.38562468470001
H   50   1    99.74730425289999   147.18887884500000    76.61705448399999
H   51   1    95.47274184820000   147.71044514770000    76.82681408480001
O   52   8    91.16605787880000   150.03859152410001    74.39285060380000
H   53   1    94.01009759999999   154.20542631110001    70.57937948610000
H   54   1    91.67439609849998   155.32226201509999    75.39629140149999
H   55   1    89.21964185060000   155.69642401019999    73.18720344060000
[GTO]
1 0
 s    3 1.00
             71.616837    0.51224461490923
             13.045096    0.49542067224093
             3.5305122    0.15440098816489
 s    3 1.00
             2.9412494   -0.54429273879656
             0.6834831    0.72803550538125
             0.2222899    0.54945922000725
 p    3 1.00
             2.9412494    0.67275386515638
             0.6834831    0.42304569296063
             0.2222899   0.067017538246306

2 0
 s    3 1.00
             71.616837    0.51224461490923
             13.045096    0.49542067224093
             3.5305122    0.15440098816489
 s    3 1.00
             2.9412494   -0.54429273879656
             0.6834831    0.72803550538125
             0.2222899    0.54945922000725
 p    3 1.00
             2.9412494    0.67275386515638
             0.6834831    0.42304569296063
             0.2222899   0.067017538246306

3 0
 s    3 1.00
             71.616837    0.51224461490923
             13.045096    0.49542067224093
             3.5305122    0.15440098816489
 s    3 1.00
             2.9412494   -0.54429273879656
             0.6834831    0.72803550538125
             0.2222899    0.54945922000725
 p    3 1.00
             2.9412494    0.67275386515638
             0.6834831    0.42304569296063
             0.2222899   0.067017538246306

4 0
 s    3 1.00
             99.106169    0.51224461681313
             18.052312    0.49542067326946
             4.8856602    0.15440098589709
 s    3 1.00
             3.7804559   -0.54429270281031
             0.8784966    0.72803543168943
             0.2857144    0.54945925436186
 p    3 1.00
             3.7804559    0.67275387519915
             0.8784966    0.42304567467841
             0.2857144   0.067017553541074

5 0
 s    3 1.00
             71.616837    0.51224461490923
             13.045096    0.49542067224093
             3.5305122    0.15440098816489
 s    3 1.00
             2.9412494   -0.54429273879656
             0.6834831    0.72803550538125
             0.2222899    0.54945922000725
 p    3 1.00
             2.9412494    0.67275386515638
             0.6834831    0.42304569296063
             0.2222899   0.067017538246306

6 0
 s    3 1.00
             71.616837    0.51224461490923
             13.045096    0.49542067224093
             3.5305122    0.15440098816489
 s    3 1.00
             2.9412494   -0.54429273879656
             0.6834831    0.72803550538125
             0.2222899    0.54945922000725
 p    3 1.00
             2.9412494    0.67275386515638
             0.6834831    0.42304569296063
             0.2222899   0.067017538246306

7 0
 s    3 1.00
             99.106169    0.51224461681313
             18.052312    0.49542067326946
             4.8856602    0.15440098589709
 s    3 1.00
             3.7804559   -0.54429270281031
             0.8784966    0.72803543168943
             0.2857144    0.54945925436186
 p    3 1.00
             3.7804559    0.67275387519915
             0.8784966    0.42304567467841
             0.2857144   0.067017553541074

8 0
 s    3 1.00
             71.616837    0.51224461490923
             13.045096    0.49542067224093
             3.5305122    0.15440098816489
 s    3 1.00
             2.9412494   -0.54429273879656
             0.6834831    0.72803550538125
             0.2222899    0.54945922000725
 p    3 1.00
             2.9412494    0.67275386515638
             0.6834831    0.42304569296063
             0.2222899   0.067017538246306

9 0
 s    3 1.00
             71.616837    0.51224461490923
             13.045096    0.49542067224093
             3.5305122    0.15440098816489
 s    3 1.00
             2.9412494   -0.54429273879656
             0.6834831    0.72803550538125
             0.2222899    0.54945922000725
 p    3 1.00
             2.9412494    0.67275386515638
             0.6834831    0.42304569296063
             0.2222899   0.067017538246306

10 0
 s    3 1.00
             71.616837    0.51224461490923
             13.045096    0.49542067224093
             3.5305122    0.15440098816489
 s    3 1.00
             2.9412494   -0.54429273879656
             0.6834831    0.72803550538125
             0.2222899    0.54945922000725
 p    3 1.00
             2.9412494    0.67275386515638
             0.6834831    0.42304569296063
             0.2222899   0.067017538246306

11 0
 s    3 1.00
             71.616837    0.51224461490923
             13.045096    0.49542067224093
             3.5305122    0.15440098816489
 s    3 1.00
             2.9412494   -0.54429273879656
             0.6834831    0.72803550538125
             0.2222899    0.54945922000725
 p    3 1.00
             2.9412494    0.67275386515638
             0.6834831    0.42304569296063
             0.2222899   0.067017538246306

12 0
 s    3 1.00
             71.616837    0.51224461490923
             13.045096    0.49542067224093
             3.5305122    0.15440098816489
 s    3 1.00
             2.9412494   -0.54429273879656
             0.6834831    0.72803550538125
             0.2222899    0.54945922000725
 p    3 1.00
             2.9412494    0.67275386515638
             0.6834831    0.42304569296063
             0.2222899   0.067017538246306

13 0
 s    3 1.00
             71.616837    0.51224461490923
             13.045096    0.49542067224093
             3.5305122    0.15440098816489
 s    3 1.00
             2.9412494   -0.54429273879656
             0.6834831    0.72803550538125
             0.2222899    0.54945922000725
 p    3 1.00
             2.9412494    0.67275386515638
             0.6834831    0.42304569296063
             0.2222899   0.067017538246306

14 0
 s    3 1.00
             71.616837    0.51224461490923
             13.045096    0.49542067224093
             3.5305122    0.15440098816489
 s    3 1.00
             2.9412494   -0.54429273879656
             0.6834831    0.72803550538125
             0.2222899    0.54945922000725
 p    3 1.00
             2.9412494    0.67275386515638
             0.6834831    0.42304569296063
             0.2222899   0.067017538246306

15 0
 s    3 1.00
             71.616837    0.51224461490923
             13.045096    0.49542067224093
             3.5305122    0.15440098816489
 s    3 1.00
             2.9412494   -0.54429273879656
             0.6834831    0.72803550538125
             0.2222899    0.54945922000725
 p    3 1.00
             2.9412494    0.67275386515638
             0.6834831    0.42304569296063
             0.2222899   0.067017538246306

16 0
 s    3 1.00
             71.616837    0.51224461490923
             13.045096    0.49542067224093
             3.5305122    0.15440098816489
 s    3 1.00
             2.9412494   -0.54429273879656
             0.6834831    0.72803550538125
             0.2222899    0.54945922000725
 p    3 1.00
             2.9412494    0.67275386515638
             0.6834831    0.42304569296063
             0.2222899   0.067017538246306

17 0
 s    3 1.00
             71.616837    0.51224461490923
             13.045096    0.49542067224093
             3.5305122    0.15440098816489
 s    3 1.00
             2.9412494   -0.54429273879656
             0.6834831    0.72803550538125
             0.2222899    0.54945922000725
 p    3 1.00
             2.9412494    0.67275386515638
             0.6834831    0.42304569296063
             0.2222899   0.067017538246306

18 0
 s    3 1.00
             71.616837    0.51224461490923
             13.045096    0.49542067224093
             3.5305122    0.15440098816489
 s    3 1.00
             2.9412494   -0.54429273879656
             0.6834831    0.72803550538125
             0.2222899    0.54945922000725
 p    3 1.00
             2.9412494    0.67275386515638
             0.6834831    0.42304569296063
             0.2222899   0.067017538246306

19 0
 s    3 1.00
             99.106169    0.51224461681313
             18.052312    0.49542067326946
             4.8856602    0.15440098589709
 s    3 1.00
             3.7804559   -0.54429270281031
             0.8784966    0.72803543168943
             0.2857144    0.54945925436186
 p    3 1.00
             3.7804559    0.67275387519915
             0.8784966    0.42304567467841
             0.2857144   0.067017553541074

20 0
 s    3 1.00
             99.106169    0.51224461681313
             18.052312    0.49542067326946
             4.8856602    0.15440098589709
 s    3 1.00
             3.7804559   -0.54429270281031
             0.8784966    0.72803543168943
             0.2857144    0.54945925436186
 p    3 1.00
             3.7804559    0.67275387519915
             0.8784966    0.42304567467841
             0.2857144   0.067017553541074

21 0
 s    3 1.00
             99.106169    0.51224461681313
             18.052312    0.49542067326946
             4.8856602    0.15440098589709
 s    3 1.00
             3.7804559   -0.54429270281031
             0.8784966    0.72803543168943
             0.2857144    0.54945925436186
 p    3 1.00
             3.7804559    0.67275387519915
             0.8784966    0.42304567467841
             0.2857144   0.067017553541074

22 0
 s    3 1.00
             71.616837    0.51224461490923
             13.045096    0.49542067224093
             3.5305122    0.15440098816489
 s    3 1.00
             2.9412494   -0.54429273879656
             0.6834831    0.72803550538125
             0.2222899    0.54945922000725
 p    3 1.00
             2.9412494    0.67275386515638
             0.6834831    0.42304569296063
             0.2222899   0.067017538246306

23 0
 s    3 1.00
            3.42525091    0.51224461283606
            0.62391373    0.49542067819727
             0.1688554    0.15440098300499

24 0
 s    3 1.00
            3.42525091    0.51224461283606
            0.62391373    0.49542067819727
             0.1688554    0.15440098300499

25 0
 s    3 1.00
            3.42525091    0.51224461283606
            0.62391373    0.49542067819727
             0.1688554    0.15440098300499

26 0
 s    3 1.00
            3.42525091    0.51224461283606
            0.62391373    0.49542067819727
             0.1688554    0.15440098300499

27 0
 s    3 1.00
             71.616837    0.51224461490923
             13.045096    0.49542067224093
             3.5305122    0.15440098816489
 s    3 1.00
             2.9412494   -0.54429273879656
             0.6834831    0.72803550538125
             0.2222899    0.54945922000725
 p    3 1.00
             2.9412494    0.67275386515638
             0.6834831    0.42304569296063
             0.2222899   0.067017538246306

28 0
 s    3 1.00
             71.616837    0.51224461490923
             13.045096    0.49542067224093
             3.5305122    0.15440098816489
 s    3 1.00
             2.9412494   -0.54429273879656
             0.6834831    0.72803550538125
             0.2222899    0.54945922000725
 p    3 1.00
             2.9412494    0.67275386515638
             0.6834831    0.42304569296063
             0.2222899   0.067017538246306

29 0
 s    3 1.00
             99.106169    0.51224461681313
             18.052312    0.49542067326946
             4.8856602    0.15440098589709
 s    3 1.00
             3.7804559   -0.54429270281031
             0.8784966    0.72803543168943
             0.2857144    0.54945925436186
 p    3 1.00
             3.7804559    0.67275387519915
             0.8784966    0.42304567467841
             0.2857144   0.067017553541074

30 0
 s    3 1.00
             71.616837    0.51224461490923
             13.045096    0.49542067224093
             3.5305122    0.15440098816489
 s    3 1.00
             2.9412494   -0.54429273879656
             0.6834831    0.72803550538125
             0.2222899    0.54945922000725
 p    3 1.00
             2.9412494    0.67275386515638
             0.6834831    0.42304569296063
             0.2222899   0.067017538246306

31 0
 s    3 1.00
             99.106169    0.51224461681313
             18.052312    0.49542067326946
             4.8856602    0.15440098589709
 s    3 1.00
             3.7804559   -0.54429270281031
             0.8784966    0.72803543168943
             0.2857144    0.54945925436186
 p    3 1.00
             3.7804559    0.67275387519915
             0.8784966    0.42304567467841
             0.2857144   0.067017553541074

32 0
 s    3 1.00
            3.42525091    0.51224461283606
            0.62391373    0.49542067819727
             0.1688554    0.15440098300499

33 0
 s    3 1.00
            3.42525091    0.51224461283606
            0.62391373    0.49542067819727
             0.1688554    0.15440098300499

34 0
 s    3 1.00
           601.3456136    0.51224460549182
           109.5358542    0.49542068136588
           29.64467686    0.15440098690146
 s    3 1.00
           38.96041889   -0.54429271593745
           9.053563477    0.72803547888267
           2.944499834    0.54945923641399
 p    3 1.00
           38.96041889    0.67275386655941
           9.053563477     0.4230456845644
           2.944499834   0.067017544008813
 s    3 1.00
           2.129386495     -1.011498637361
          0.5940934274    0.39886247422265
           0.232524141    0.78774848606341
 p    3 1.00
           2.129386495   0.070369244409328
          0.5940934274    0.80209230148042
           0.232524141     0.1927502962028

35 0
 s    3 1.00
            3.42525091    0.51224461283606
            0.62391373    0.49542067819727
             0.1688554    0.15440098300499

36 0
 s    3 1.00
            3.42525091    0.51224461283606
            0.62391373    0.49542067819727
             0.1688554    0.15440098300499

37 0
 s    3 1.00
            3.42525091    0.51224461283606
            0.62391373    0.49542067819727
             0.1688554    0.15440098300499

38 0
 s    3 1.00
            3.42525091    0.51224461283606
            0.62391373    0.49542067819727
             0.1688554    0.15440098300499

39 0
 s    3 1.00
            3.42525091    0.51224461283606
            0.62391373    0.49542067819727
             0.1688554    0.15440098300499

40 0
 s    3 1.00
            3.42525091    0.51224461283606
            0.62391373    0.49542067819727
             0.1688554    0.15440098300499

41 0
 s    3 1.00
             130.70932    0.51224465261839
             23.808861    0.49542064112621
             6.4436083     0.1544009986304
 s    3 1.00
             5.0331513   -0.54429269308397
             1.1695961    0.72803543997361
              0.380389     0.5494592547685
 p    3 1.00
             5.0331513    0.67275385977724
             1.1695961     0.4230456856117
              0.380389   0.067017554083983

42 0
 s    3 1.00
             71.616837    0.51224461490923
             13.045096    0.49542067224093
             3.5305122    0.15440098816489
 s    3 1.00
             2.9412494   -0.54429273879656
             0.6834831    0.72803550538125
             0.2222899    0.54945922000725
 p    3 1.00
             2.9412494    0.67275386515638
             0.6834831    0.42304569296063
             0.2222899   0.067017538246306

43 0
 s    3 1.00
             71.616837    0.51224461490923
             13.045096    0.49542067224093
             3.5305122    0.15440098816489
 s    3 1.00
             2.9412494   -0.54429273879656
             0.6834831    0.72803550538125
             0.2222899    0.54945922000725
 p    3 1.00
             2.9412494    0.67275386515638
             0.6834831    0.42304569296063
             0.2222899   0.067017538246306

44 0
 s    3 1.00
             71.616837    0.51224461490923
             13.045096    0.49542067224093
             3.5305122    0.15440098816489
 s    3 1.00
             2.9412494   -0.54429273879656
             0.6834831    0.72803550538125
             0.2222899    0.54945922000725
 p    3 1.00
             2.9412494    0.67275386515638
             0.6834831    0.42304569296063
             0.2222899   0.067017538246306

45 0
 s    3 1.00
            3.42525091    0.51224461283606
            0.62391373    0.49542067819727
             0.1688554    0.15440098300499

46 0
 s    3 1.00
            3.42525091    0.51224461283606
            0.62391373    0.49542067819727
             0.1688554    0.15440098300499

47 0
 s    3 1.00
            3.42525091    0.51224461283606
            0.62391373    0.49542067819727
             0.1688554    0.15440098300499

48 0
 s    3 1.00
            3.42525091    0.51224461283606
            0.62391373    0.49542067819727
             0.1688554    0.15440098300499

49 0
 s    3 1.00
            3.42525091    0.51224461283606
            0.62391373    0.49542067819727
             0.1688554    0.15440098300499

50 0
 s    3 1.00
            3.42525091    0.51224461283606
            0.62391373    0.49542067819727
             0.1688554    0.15440098300499

51 0
 s    3 1.00
            3.42525091    0.51224461283606
            0.62391373    0.49542067819727
             0.1688554    0.15440098300499

52 0
 s    3 1.00
             130.70932    0.51224465261839
             23.808861    0.49542064112621
             6.4436083     0.1544009986304
 s    3 1.00
             5.0331513   -0.54429269308397
             1.1695961    0.72803543997361
              0.380389     0.5494592547685
 p    3 1.00
             5.0331513    0.67275385977724
             1.1695961     0.4230456856117
              0.380389   0.067017554083983

53 0
 s    3 1.00
            3.42525091    0.51224461283606
            0.62391373    0.49542067819727
             0.1688554    0.15440098300499

54 0
 s    3 1.00
            3.42525091    0.51224461283606
            0.62391373    0.49542067819727
             0.1688554    0.15440098300499

55 0
 s    3 1.00
            3.42525091    0.51224461283606
            0.62391373    0.49542067819727
             0.1688554    0.15440098300499

[5d]
[7f]
[9g]

[MO]
 Sym= A
 Ene=               0
 Spin= Alpha
 Occup=    2.00000
   1              1.38e-12
   2           -2.8977e-12
   3           -7.2675e-12
   4            8.5705e-12
   5            8.0628e-12
   6            3.0452e-12
   7           -1.2307e-11
   8            8.1363e-12
   9           -8.5731e-12
  10          -1.08433e-11
  11           -4.6034e-12
  12           1.76036e-11
  13            6.2387e-12
  14          -3.25736e-11
  15          -4.54998e-11
  16            2.6586e-12
  17          -1.42341e-11
  18           -1.0489e-11
  19          -8.10452e-11
  20           -1.6293e-10
  21           -3.9727e-12
  22            4.9233e-12
  23           -8.9426e-12
  24          -1.20928e-11
  25            4.1025e-12
  26           2.55837e-11
  27         -1.044725e-10
  28           6.26923e-11
  29           5.68321e-11
  30           4.85738e-11
  31          -5.55659e-11
  32          5.588709e-10
  33         -1.765381e-10
  34         -4.453542e-10
  35          -1.08825e-10
  36           1.60406e-10
  37        -1.0744484e-09
  38         -5.760999e-10
  39         -9.442793e-10
  40         -7.691701e-10
  41         1.1303123e-09
  42       -1.89934956e-08
  43        -3.2168977e-09
  44        1.03802781e-08
  45         2.0137946e-09
  46        -3.4717815e-09
  47        2.67813644e-08
  48        1.42201688e-08
  49        5.36371595e-08
  50         6.3511338e-08
  51       -9.00761162e-08
  52      1.0788419694e-06
  53       1.174771126e-07
  54      -8.094369958e-07
  55      -4.461248903e-07
  56      -6.663726954e-07
  57      2.0772959773e-06
  58     -1.7401332761e-06
  59     -3.2985129382e-06
  60     -3.2541332611e-06
  61       1.214148002e-07
  62    -1.07621155141e-05
  63    -1.04805554444e-05
  64      1.4456557243e-05
  65    -1.19001409874e-05
  66     -2.3509435054e-06
  67      8.8232698176e-06
  68    -1.08205189649e-05
  69     -8.5976279343e-06
  70    -1.25082929734e-05
  71        4.88471316e-08
  72      1.7557151712e-06
  73      2.5336218695e-06
  74      2.0665377457e-06
  75     -1.2030741239e-06
  76       -1.87026036e-08
  77       2.589088905e-07
  78       -2.29823795e-08
  79      -4.500029577e-07
  80         4.1979472e-09
  81         1.9279452e-09
  82       -3.85259102e-08
  83          2.749382e-09
  84        -2.5424191e-09
  85        3.25546686e-08
  86          9.668012e-10
  87          1.162256e-09
  88        -3.0087787e-09
  89       -1.47241866e-08
  90         -4.407391e-10
  91         5.8664695e-09
  92       -7.00982072e-08
  93       -2.65406735e-08
  94       -8.17075657e-08
  95        6.01984559e-08
  96        2.23587985e-08
  97      -1.708191761e-07
  98        8.65515852e-08
  99       -8.23604214e-08
 100       3.296983083e-07
 101      -1.572463779e-07
 102      3.5534513363e-06
 103      2.7728537669e-06
 104      4.2214880603e-06
 105     -2.5265699727e-06
 106     -2.9394224603e-06
 107      1.4542442999e-06
 108     -3.0902193789e-05
 109    -1.08279631275e-05
 110     -7.6381180789e-06
 111     3.82237025949e-05
 112        -1.0696705e-09
 113         4.6282242e-09
 114        -6.7882971e-09
 115    -5.26589884396e-05
 116    0.0003741061610361
 117     7.43508030396e-05
 118    -0.0003462857305414
 119     2.94734728423e-05
 120       5.098732123e-07
 121    -1.45505421395e-05
 122      4.4918670015e-06
 123     1.88012704439e-05
 124     1.34735495751e-05
 125      -1.992060184e-07
 126      -4.771658111e-07
 127       4.146924669e-07
 128      -8.120161539e-07
 129       5.364724731e-07
 130      -3.249691704e-07
 131       4.310027523e-07
 132         -2.591375e-09
 133     -3.1445834577e-06
 134      -4.231768147e-07
 135       -8.52178134e-08
 136       9.617995043e-07
 137       2.134160615e-07
 138      -6.626954536e-07
 139      -1.039767344e-07
 140        1.31398833e-08
 141     2.90718505342e-05
 142       0.9945047367926
 143     0.015739861252473
 144     -2.3502829398e-05
 145    0.0001109368983959
 146     -9.1153569933e-06
 147    -0.0018062046116582
 148     4.75064453345e-05
 149    -0.0002335723798457
 150     1.81808374095e-05
 151         6.0099123e-08
 152         9.3709916e-09
 153         1.1030214e-09
 154         1.4325978e-09
 155           5.75386e-11
 156         -2.613796e-10
 157            2.0038e-12
 158            7.9737e-12
 159          -8.52374e-11
 160           6.22467e-11
 161           3.42906e-11
 162           -2.2935e-12
 163           3.41117e-11
 164           3.38785e-11
 165          -1.01882e-11
 166          -2.00053e-11
 167           -1.2614e-12
 168            1.7968e-12
 169           -6.7967e-12
 170            4.9179e-12
 171           -2.5628e-12
 172            -2.977e-13
 173            2.2629e-12
 174            2.3184e-12
 175             9.468e-13
 176            7.1948e-12
 177          -2.95473e-11
 178           2.10465e-11
 179           -2.5164e-12
 180           -1.2494e-12
 181          -8.45634e-11
 182          -1.46316e-11
 183           4.69413e-11
 184             8.648e-13
 185           -4.2004e-12
 186             8.527e-13
 187           1.28901e-11
 188           -4.5016e-12
 189            3.7602e-12
 190            3.9359e-12
 191            5.2366e-12
 Sym= A
 Ene=               1
 Spin= Alpha
 Occup=    2.00000
   1     -6.4399565687e-06
   2     2.54556286432e-05
   3       1.616243056e-05
   4     -6.1946227708e-06
   5     5.98431248574e-05
   6     -6.5073896711e-06
   7    0.0001764802455103
   8    -0.000327288165381
   9    -0.0001917066042045
  10    0.0001304316996217
  11    0.0005605156781575
  12    -0.0067617458167555
  13    0.0045870347923462
  14    0.0029381097521268
  15    -0.0027251162532325
  16    -2.07181610337e-05
  17    0.0003105585902523
  18    -0.0003571217602667
  19    -0.000424678581226
  20    -4.30335006308e-05
  21      3.7457304188e-06
  22    -4.69004288563e-05
  23      5.2238129215e-05
  24    -7.10980732717e-05
  25     2.82405485579e-05
  26     1.03477929031e-05
  27    -4.61340112914e-05
  28     2.38150265816e-05
  29    -2.30689496514e-05
  30    -5.08955018656e-05
  31      -3.747123443e-06
  32     2.84707178881e-05
  33      5.1912777819e-06
  34     2.45756003115e-05
  35    -1.14391443962e-05
  36       9.201524373e-07
  37      -3.550005474e-06
  38      -7.431811807e-07
  39     -5.9528842236e-06
  40     -1.6631452391e-06
  41        7.66464961e-08
  42      -1.790412789e-07
  43       5.351787398e-07
  44      -1.050845457e-07
  45       -4.74414797e-08
  46       1.054536262e-07
  47      -4.918629172e-07
  48        6.22623315e-08
  49      -5.568047134e-07
  50      -1.694682574e-07
  51       -1.66063027e-08
  52        6.38421998e-08
  53        7.07645537e-08
  54       1.602512298e-07
  55      -1.321550403e-07
  56        1.63115396e-08
  57       -7.52332323e-08
  58       -1.17038828e-08
  59       -8.54983196e-08
  60         -3.552291e-08
  61         -8.560215e-09
  62        3.78465968e-08
  63       -4.18140407e-08
  64        5.85614112e-08
  65         4.2385672e-09
  66         -9.315291e-10
  67         4.9538768e-09
  68        1.73403809e-08
  69        -7.6394309e-09
  70         -6.778194e-10
  71         -8.634386e-10
  72         2.8650675e-09
  73         8.5891646e-09
  74        -8.5720103e-09
  75        1.30066732e-08
  76         -3.632875e-10
  77         1.7736289e-09
  78       -1.27439442e-08
  79        -6.7549301e-09
  80        -5.8190187e-09
  81           9.61869e-11
  82         -2.274247e-10
  83         4.4201895e-09
  84        -9.3107852e-09
  85         8.0446988e-09
  86          2.443774e-10
  87         -5.903748e-10
  88        -2.9516249e-09
  89        1.29580854e-08
  90        -1.8731474e-09
  91        -2.2687833e-09
  92         1.2064621e-08
  93        2.54793686e-08
  94        -1.9173577e-09
  95         7.4938835e-09
  96         2.6360166e-09
  97       -1.31259715e-08
  98       -1.37831226e-08
  99         7.3984876e-09
 100         1.8836723e-09
 101        -5.9377599e-09
 102        3.07354834e-08
 103        3.09641479e-08