[Molden Format]
[Title]
 Molden file created by orca_2mkl for BaseName=f09_xray_mp2-sto3g

[Atoms] AU
C    1   6         91.2813330627       155.5887115103        73.3799573960 
C    2   6         92.4586267749       153.4741004075        71.7415648379 
C    3   6         92.9575220332       151.1969917545        73.3780695596 
N    4   7         95.4557362028       150.4940098532        73.9128563863 
C    5   6         96.1095833348       147.9920181211        74.8747326577 
C    6   6         94.9209437069       145.7885974489        73.3005888984 
N    7   7         94.4239438439       143.7174557164        74.7745733931 
C    8   6         94.0044246422       141.3061632798        73.6955416604 
C    9   6         96.6651609285       140.1175293210        73.3742844382 
C   10   6         96.9278328611       137.4359965986        72.2328898533 
C   11   6         98.3810341478       135.4839151715        73.3194842700 
C   12   6         98.0484366791       133.2540364437        71.7434526743 
C   13   6         98.6002367102       130.6386516949        72.2744619385 
C   14   6        100.1025727661       129.8600939764        74.5648137923 
C   15   6         99.7586444994       130.2399213704        77.0006745583 
C   16   6         97.8500173247       131.4814808890        78.3329277033 
C   17   6         98.1164724891       131.2301416440        80.9861013056 
C   18   6        100.4105943465       130.1643304353        82.1218304915 
N   19   7        102.0735552340       128.7942827677        80.6289449560 
N   20   7        101.6597089902       128.9265617073        78.1212783763 
N   21   7        103.1790431326       127.5962058474        76.5528019057 
C   22   6        102.2965429178       128.1347702367        74.2548968166 
H   23   1        103.1374710474       127.3146328740        72.5806032414 
H   24   1        100.6335820303       130.1567753102        84.1551758116 
H   25   1         96.8352362805       132.2109038384        82.2465486369 
H   26   1         96.2947764960       132.4811460139        77.4504274885 
C   27   6         97.6931700556       128.8906625800        70.5567084417 
C   28   6         96.2928867698       129.8865501423        68.4080879377 
N   29   7         95.7051800524       132.3053958142        67.9961219713 
C   30   6         96.4931958503       133.9683510326        69.7025446702 
N   31   7         95.9754071101       136.5175896976        69.9519885199 
H   32   1         95.0116505613       137.4662435551        68.6065072920 
H   33   1         95.7032922160       128.5353883976        66.9718922964 
Cl  34  17         98.3866995467       125.6516644275        70.8288233358 
H   35   1         99.3599085057       135.7465871041        75.0996081779 
H   36   1         97.5533341011       140.0721721144        75.2470049266 
H   37   1         97.7857647464       141.4214309048        72.2139963714 
H   38   1         92.9839781990       141.6009567773        71.9173055889 
H   39   1         92.7647680778       140.1231966097        74.8652821373 
H   40   1         94.2878854520       143.8176130913        76.6813051725 
O   41   8         94.8944875410       145.7621412831        70.9440985197 
C   42   6         99.0518850356       147.8238230465        74.7707958306 
C   43   6        100.0931222457       150.4429872476        74.2454519654 
C   44   6         97.7989928294       151.7412234324        73.0662628578 
H   45   1         97.9841935494       151.5711537496        71.0083492082 
H   46   1         97.8519051611       153.7575631071        73.5481373528 
H   47   1        101.7825392991       150.5242435816        73.0454720909 
H   48   1        100.4427234702       151.2517919226        76.1219500163 
H   49   1         99.6188028758       146.3914200857        73.3856246847 
H   50   1         99.7473042529       147.1888788450        76.6170544840 
H   51   1         95.4727418482       147.7104451477        76.8268140848 
O   52   8         91.1660578788       150.0385915241        74.3928506038 
H   53   1         94.0100976000       154.2054263111        70.5793794861 
H   54   1         91.6743960985       155.3222620151        75.3962914015 
H   55   1         89.2196418506       155.6964240102        73.1872034406 
[GTO]
  1 0
s   3 1.0 
       71.6168370000         2.7078144539
       13.0450960000         2.6188801561
        3.5305122000         0.8161905763
s   3 1.0 
        2.9412494000        -0.1600171900
        0.6834831000         0.2140359176
        0.2222899000         0.1615360892
p   3 1.0 
        2.9412494000         0.8560445069
        0.6834831000         0.5383037696
        0.2222899000         0.0852763521

  2 0
s   3 1.0 
       71.6168370000         2.7078144539
       13.0450960000         2.6188801561
        3.5305122000         0.8161905763
s   3 1.0 
        2.9412494000        -0.1600171900
        0.6834831000         0.2140359176
        0.2222899000         0.1615360892
p   3 1.0 
        2.9412494000         0.8560445069
        0.6834831000         0.5383037696
        0.2222899000         0.0852763521

  3 0
s   3 1.0 
       71.6168370000         2.7078144539
       13.0450960000         2.6188801561
        3.5305122000         0.8161905763
s   3 1.0 
        2.9412494000        -0.1600171900
        0.6834831000         0.2140359176
        0.2222899000         0.1615360892
p   3 1.0 
        2.9412494000         0.8560445069
        0.6834831000         0.5383037696
        0.2222899000         0.0852763521

  4 0
s   3 1.0 
       99.1061690000         3.4548807944
       18.0523120000         3.3414101643
        4.8856602000         1.0413716090
s   3 1.0 
        3.7804559000        -0.1931638603
        0.8784966000         0.2583722576
        0.2857144000         0.1949974161
p   3 1.0 
        3.7804559000         1.1715524612
        0.8784966000         0.7367035994
        0.2857144000         0.1167062468

  5 0
s   3 1.0 
       71.6168370000         2.7078144539
       13.0450960000         2.6188801561
        3.5305122000         0.8161905763
s   3 1.0 
        2.9412494000        -0.1600171900
        0.6834831000         0.2140359176
        0.2222899000         0.1615360892
p   3 1.0 
        2.9412494000         0.8560445069
        0.6834831000         0.5383037696
        0.2222899000         0.0852763521

  6 0
s   3 1.0 
       71.6168370000         2.7078144539
       13.0450960000         2.6188801561
        3.5305122000         0.8161905763
s   3 1.0 
        2.9412494000        -0.1600171900
        0.6834831000         0.2140359176
        0.2222899000         0.1615360892
p   3 1.0 
        2.9412494000         0.8560445069
        0.6834831000         0.5383037696
        0.2222899000         0.0852763521

  7 0
s   3 1.0 
       99.1061690000         3.4548807944
       18.0523120000         3.3414101643
        4.8856602000         1.0413716090
s   3 1.0 
        3.7804559000        -0.1931638603
        0.8784966000         0.2583722576
        0.2857144000         0.1949974161
p   3 1.0 
        3.7804559000         1.1715524612
        0.8784966000         0.7367035994
        0.2857144000         0.1167062468

  8 0
s   3 1.0 
       71.6168370000         2.7078144539
       13.0450960000         2.6188801561
        3.5305122000         0.8161905763
s   3 1.0 
        2.9412494000        -0.1600171900
        0.6834831000         0.2140359176
        0.2222899000         0.1615360892
p   3 1.0 
        2.9412494000         0.8560445069
        0.6834831000         0.5383037696
        0.2222899000         0.0852763521

  9 0
s   3 1.0 
       71.6168370000         2.7078144539
       13.0450960000         2.6188801561
        3.5305122000         0.8161905763
s   3 1.0 
        2.9412494000        -0.1600171900
        0.6834831000         0.2140359176
        0.2222899000         0.1615360892
p   3 1.0 
        2.9412494000         0.8560445069
        0.6834831000         0.5383037696
        0.2222899000         0.0852763521

 10 0
s   3 1.0 
       71.6168370000         2.7078144539
       13.0450960000         2.6188801561
        3.5305122000         0.8161905763
s   3 1.0 
        2.9412494000        -0.1600171900
        0.6834831000         0.2140359176
        0.2222899000         0.1615360892
p   3 1.0 
        2.9412494000         0.8560445069
        0.6834831000         0.5383037696
        0.2222899000         0.0852763521

 11 0
s   3 1.0 
       71.6168370000         2.7078144539
       13.0450960000         2.6188801561
        3.5305122000         0.8161905763
s   3 1.0 
        2.9412494000        -0.1600171900
        0.6834831000         0.2140359176
        0.2222899000         0.1615360892
p   3 1.0 
        2.9412494000         0.8560445069
        0.6834831000         0.5383037696
        0.2222899000         0.0852763521

 12 0
s   3 1.0 
       71.6168370000         2.7078144539
       13.0450960000         2.6188801561
        3.5305122000         0.8161905763
s   3 1.0 
        2.9412494000        -0.1600171900
        0.6834831000         0.2140359176
        0.2222899000         0.1615360892
p   3 1.0 
        2.9412494000         0.8560445069
        0.6834831000         0.5383037696
        0.2222899000         0.0852763521

 13 0
s   3 1.0 
       71.6168370000         2.7078144539
       13.0450960000         2.6188801561
        3.5305122000         0.8161905763
s   3 1.0 
        2.9412494000        -0.1600171900
        0.6834831000         0.2140359176
        0.2222899000         0.1615360892
p   3 1.0 
        2.9412494000         0.8560445069
        0.6834831000         0.5383037696
        0.2222899000         0.0852763521

 14 0
s   3 1.0 
       71.6168370000         2.7078144539
       13.0450960000         2.6188801561
        3.5305122000         0.8161905763
s   3 1.0 
        2.9412494000        -0.1600171900
        0.6834831000         0.2140359176
        0.2222899000         0.1615360892
p   3 1.0 
        2.9412494000         0.8560445069
        0.6834831000         0.5383037696
        0.2222899000         0.0852763521

 15 0
s   3 1.0 
       71.6168370000         2.7078144539
       13.0450960000         2.6188801561
        3.5305122000         0.8161905763
s   3 1.0 
        2.9412494000        -0.1600171900
        0.6834831000         0.2140359176
        0.2222899000         0.1615360892
p   3 1.0 
        2.9412494000         0.8560445069
        0.6834831000         0.5383037696
        0.2222899000         0.0852763521

 16 0
s   3 1.0 
       71.6168370000         2.7078144539
       13.0450960000         2.6188801561
        3.5305122000         0.8161905763
s   3 1.0 
        2.9412494000        -0.1600171900
        0.6834831000         0.2140359176
        0.2222899000         0.1615360892
p   3 1.0 
        2.9412494000         0.8560445069
        0.6834831000         0.5383037696
        0.2222899000         0.0852763521

 17 0
s   3 1.0 
       71.6168370000         2.7078144539
       13.0450960000         2.6188801561
        3.5305122000         0.8161905763
s   3 1.0 
        2.9412494000        -0.1600171900
        0.6834831000         0.2140359176
        0.2222899000         0.1615360892
p   3 1.0 
        2.9412494000         0.8560445069
        0.6834831000         0.5383037696
        0.2222899000         0.0852763521

 18 0
s   3 1.0 
       71.6168370000         2.7078144539
       13.0450960000         2.6188801561
        3.5305122000         0.8161905763
s   3 1.0 
        2.9412494000        -0.1600171900
        0.6834831000         0.2140359176
        0.2222899000         0.1615360892
p   3 1.0 
        2.9412494000         0.8560445069
        0.6834831000         0.5383037696
        0.2222899000         0.0852763521

 19 0
s   3 1.0 
       99.1061690000         3.4548807944
       18.0523120000         3.3414101643
        4.8856602000         1.0413716090
s   3 1.0 
        3.7804559000        -0.1931638603
        0.8784966000         0.2583722576
        0.2857144000         0.1949974161
p   3 1.0 
        3.7804559000         1.1715524612
        0.8784966000         0.7367035994
        0.2857144000         0.1167062468

 20 0
s   3 1.0 
       99.1061690000         3.4548807944
       18.0523120000         3.3414101643
        4.8856602000         1.0413716090
s   3 1.0 
        3.7804559000        -0.1931638603
        0.8784966000         0.2583722576
        0.2857144000         0.1949974161
p   3 1.0 
        3.7804559000         1.1715524612
        0.8784966000         0.7367035994
        0.2857144000         0.1167062468

 21 0
s   3 1.0 
       99.1061690000         3.4548807944
       18.0523120000         3.3414101643
        4.8856602000         1.0413716090
s   3 1.0 
        3.7804559000        -0.1931638603
        0.8784966000         0.2583722576
        0.2857144000         0.1949974161
p   3 1.0 
        3.7804559000         1.1715524612
        0.8784966000         0.7367035994
        0.2857144000         0.1167062468

 22 0
s   3 1.0 
       71.6168370000         2.7078144539
       13.0450960000         2.6188801561
        3.5305122000         0.8161905763
s   3 1.0 
        2.9412494000        -0.1600171900
        0.6834831000         0.2140359176
        0.2222899000         0.1615360892
p   3 1.0 
        2.9412494000         0.8560445069
        0.6834831000         0.5383037696
        0.2222899000         0.0852763521

 23 0
s   3 1.0 
        3.4252509100         0.2769343610
        0.6239137300         0.2678388518
        0.1688554000         0.0834736696

 24 0
s   3 1.0 
        3.4252509100         0.2769343610
        0.6239137300         0.2678388518
        0.1688554000         0.0834736696

 25 0
s   3 1.0 
        3.4252509100         0.2769343610
        0.6239137300         0.2678388518
        0.1688554000         0.0834736696

 26 0
s   3 1.0 
        3.4252509100         0.2769343610
        0.6239137300         0.2678388518
        0.1688554000         0.0834736696

 27 0
s   3 1.0 
       71.6168370000         2.7078144539
       13.0450960000         2.6188801561
        3.5305122000         0.8161905763
s   3 1.0 
        2.9412494000        -0.1600171900
        0.6834831000         0.2140359176
        0.2222899000         0.1615360892
p   3 1.0 
        2.9412494000         0.8560445069
        0.6834831000         0.5383037696
        0.2222899000         0.0852763521

 28 0
s   3 1.0 
       71.6168370000         2.7078144539
       13.0450960000         2.6188801561
        3.5305122000         0.8161905763
s   3 1.0 
        2.9412494000        -0.1600171900
        0.6834831000         0.2140359176
        0.2222899000         0.1615360892
p   3 1.0 
        2.9412494000         0.8560445069
        0.6834831000         0.5383037696
        0.2222899000         0.0852763521

 29 0
s   3 1.0 
       99.1061690000         3.4548807944
       18.0523120000         3.3414101643
        4.8856602000         1.0413716090
s   3 1.0 
        3.7804559000        -0.1931638603
        0.8784966000         0.2583722576
        0.2857144000         0.1949974161
p   3 1.0 
        3.7804559000         1.1715524612
        0.8784966000         0.7367035994
        0.2857144000         0.1167062468

 30 0
s   3 1.0 
       71.6168370000         2.7078144539
       13.0450960000         2.6188801561
        3.5305122000         0.8161905763
s   3 1.0 
        2.9412494000        -0.1600171900
        0.6834831000         0.2140359176
        0.2222899000         0.1615360892
p   3 1.0 
        2.9412494000         0.8560445069
        0.6834831000         0.5383037696
        0.2222899000         0.0852763521

 31 0
s   3 1.0 
       99.1061690000         3.4548807944
       18.0523120000         3.3414101643
        4.8856602000         1.0413716090
s   3 1.0 
        3.7804559000        -0.1931638603
        0.8784966000         0.2583722576
        0.2857144000         0.1949974161
p   3 1.0 
        3.7804559000         1.1715524612
        0.8784966000         0.7367035994
        0.2857144000         0.1167062468

 32 0
s   3 1.0 
        3.4252509100         0.2769343610
        0.6239137300         0.2678388518
        0.1688554000         0.0834736696

 33 0
s   3 1.0 
        3.4252509100         0.2769343610
        0.6239137300         0.2678388518
        0.1688554000         0.0834736696

 34 0
s   3 1.0 
      601.3456136000        13.3567455587
      109.5358542000        12.9180628055
       29.6446768600         4.0259959284
s   3 1.0 
       38.9604188900        -1.1110547498
        9.0535634770         1.4861254857
        2.9444998340         1.1216010734
p   3 1.0 
       38.9604188900        21.6327165793
        9.0535634770        13.6032326965
        2.9444998340         2.1549806065
s   3 1.0 
        2.1293864950        -0.2759139005
        0.5940934274         0.1088006419
        0.2325241410         0.2148799310
p   3 1.0 
        2.1293864950         0.0388200338
        0.5940934274         0.4424837941
        0.2325241410         0.1063330021

 35 0
s   3 1.0 
        3.4252509100         0.2769343610
        0.6239137300         0.2678388518
        0.1688554000         0.0834736696

 36 0
s   3 1.0 
        3.4252509100         0.2769343610
        0.6239137300         0.2678388518
        0.1688554000         0.0834736696

 37 0
s   3 1.0 
        3.4252509100         0.2769343610
        0.6239137300         0.2678388518
        0.1688554000         0.0834736696

 38 0
s   3 1.0 
        3.4252509100         0.2769343610
        0.6239137300         0.2678388518
        0.1688554000         0.0834736696

 39 0
s   3 1.0 
        3.4252509100         0.2769343610
        0.6239137300         0.2678388518
        0.1688554000         0.0834736696

 40 0
s   3 1.0 
        3.4252509100         0.2769343610
        0.6239137300         0.2678388518
        0.1688554000         0.0834736696

 41 0
s   3 1.0 
      130.7093200000         4.2519432829
       23.8088610000         4.1122937184
        6.4436083000         1.2816225326
s   3 1.0 
        5.0331513000        -0.2394130030
        1.1695961000         0.3202342291
        0.3803890000         0.2416855708
p   3 1.0 
        5.0331513000         1.6754501181
        1.1695961000         1.0535680080
        0.3803890000         0.1669028981

 42 0
s   3 1.0 
       71.6168370000         2.7078144539
       13.0450960000         2.6188801561
        3.5305122000         0.8161905763
s   3 1.0 
        2.9412494000        -0.1600171900
        0.6834831000         0.2140359176
        0.2222899000         0.1615360892
p   3 1.0 
        2.9412494000         0.8560445069
        0.6834831000         0.5383037696
        0.2222899000         0.0852763521

 43 0
s   3 1.0 
       71.6168370000         2.7078144539
       13.0450960000         2.6188801561
        3.5305122000         0.8161905763
s   3 1.0 
        2.9412494000        -0.1600171900
        0.6834831000         0.2140359176
        0.2222899000         0.1615360892
p   3 1.0 
        2.9412494000         0.8560445069
        0.6834831000         0.5383037696
        0.2222899000         0.0852763521

 44 0
s   3 1.0 
       71.6168370000         2.7078144539
       13.0450960000         2.6188801561
        3.5305122000         0.8161905763
s   3 1.0 
        2.9412494000        -0.1600171900
        0.6834831000         0.2140359176
        0.2222899000         0.1615360892
p   3 1.0 
        2.9412494000         0.8560445069
        0.6834831000         0.5383037696
        0.2222899000         0.0852763521

 45 0
s   3 1.0 
        3.4252509100         0.2769343610
        0.6239137300         0.2678388518
        0.1688554000         0.0834736696

 46 0
s   3 1.0 
        3.4252509100         0.2769343610
        0.6239137300         0.2678388518
        0.1688554000         0.0834736696

 47 0
s   3 1.0 
        3.4252509100         0.2769343610
        0.6239137300         0.2678388518
        0.1688554000         0.0834736696

 48 0
s   3 1.0 
        3.4252509100         0.2769343610
        0.6239137300         0.2678388518
        0.1688554000         0.0834736696

 49 0
s   3 1.0 
        3.4252509100         0.2769343610
        0.6239137300         0.2678388518
        0.1688554000         0.0834736696

 50 0
s   3 1.0 
        3.4252509100         0.2769343610
        0.6239137300         0.2678388518
        0.1688554000         0.0834736696

 51 0
s   3 1.0 
        3.4252509100         0.2769343610
        0.6239137300         0.2678388518
        0.1688554000         0.0834736696

 52 0
s   3 1.0 
      130.7093200000         4.2519432829
       23.8088610000         4.1122937184
        6.4436083000         1.2816225326
s   3 1.0 
        5.0331513000        -0.2394130030
        1.1695961000         0.3202342291
        0.3803890000         0.2416855708
p   3 1.0 
        5.0331513000         1.6754501181
        1.1695961000         1.0535680080
        0.3803890000         0.1669028981

 53 0
s   3 1.0 
        3.4252509100         0.2769343610
        0.6239137300         0.2678388518
        0.1688554000         0.0834736696

 54 0
s   3 1.0 
        3.4252509100         0.2769343610
        0.6239137300         0.2678388518
        0.1688554000         0.0834736696

 55 0
s   3 1.0 
        3.4252509100         0.2769343610
        0.6239137300         0.2678388518
        0.1688554000         0.0834736696

[5D]
[7F]
[9G]
[MO]
 Sym=     1a
 Ene= -1.03701974129305E+02
 Spin= Alpha
 Occup= 2.000000
  1       0.008676141765
  2       0.005524892913
  3       0.001813001240
  4      -0.003046341819
  5      -0.002073173914
  6      -0.965446121920
  7      -0.032687482321
  8      -0.002677101738
  9      -0.000758318676
 10      -0.002439501007
 11      -0.035848839053
 12       0.004777958670
 13      -0.000359965965
 14       0.003531931322
 15      -0.002471568095
 16      -0.018389477549
 17      -0.001092321820
 18      -0.000334594145
 19      -0.000155221957
 20       0.000158245643
 21       0.000048860775
 22       0.000288348818
 23      -0.000037440872
 24       0.000029315408
 25      -0.000031242742
 26      -0.008168393474
 27      -0.000674851019
 28       0.000066637022
 29       0.000351019172
 30      -0.000324656222
 31       0.081570149110
 32       0.002407010045
 33       0.000036833300
 34       0.000244797225
 35       0.000045453558
 36       0.060353273924
 37       0.001564087535
 38      -0.000192761587
 39      -0.000233669276
 40      -0.000120053512
 41       0.036506156595
 42       0.001457061734
 43       0.000277243196
 44      -0.000407432189
 45      -0.000151708113
 46      -0.084885480754
 47      -0.002822234202
 48       0.000004263656
 49      -0.000116332587
 50      -0.000025853580
 51      -0.026712340117
 52      -0.000394146329
 53      -0.000161963873
 54       0.000273549029
 55      -0.000109482340
 56      -0.000671429067
 57       0.000473376310
 58       0.000062984532
 59      -0.000106140433
 60       0.000132727237
 61      -0.053624227115
 62      -0.002183110646
 63       0.000088879285
 64       0.000152980308
 65       0.000176908226
 66      -0.004014460525
 67       0.000190934098
 68      -0.000128915607
 69       0.000075739359
 70      -0.000187119080
 71      -0.000976206017
 72      -0.000209064862
 73       0.000038843435
 74      -0.000026952492
 75      -0.000059547077
 76       0.018494325579
 77       0.001059048755
 78       0.000063891208
 79      -0.000048479191
 80       0.000251811437
 81      -0.057283972983
 82      -0.002147173926
 83      -0.000032041568
 84      -0.000048743977
 85       0.000108710862
 86      -0.000323140896
 87       0.000156741209
 88      -0.000299540717
 89       0.000178979061
 90      -0.000004960707
 91       0.032345506903
 92       0.000867175663
 93      -0.000126351008
 94       0.000091703512
 95      -0.000030032268
 96       0.008772040464
 97       0.000243446673
 98       0.000026473976
 99      -0.000041668538
100      -0.000205741626
101      -0.022367977158
102      -0.000690202185
103       0.000126118602
104      -0.000101115512
105       0.000019614886
106      -0.001491828281
107       0.000121378891
108       0.000030673013
109      -0.000000780015
110       0.000106008880
111       0.000005442636
112      -0.000002167819
113       0.000394710038
114      -0.000109821631
115       0.042292571795
116       0.002071573115
117       0.000369965667
118      -0.000533881801
119       0.000379241544
120       0.085900595420
121       0.002560838979
122      -0.000072229820
123       0.000062634650
124      -0.000119250548
125       0.012902829448
126      -0.000104850185
127      -0.000004305659
128       0.000254483467
129       0.000047903988
130       0.002577593034
131       0.000080969042
132       0.000000324879
133       0.000232654229
134       0.000090643989
135      -0.017996288091
136      -0.000123246617
137       0.000098532722
138       0.000160283569
139       0.000260290558
140       0.000134078278
141      -0.000520152972
142       0.022389418790
143      -0.019438454942
144       0.022387745720
145      -0.045976331775
146       0.039332781945
147      -0.001379023889
148       0.001034067186
149      -0.002496401277
150       0.001620689112
151       0.000169986856
152      -0.000252377984
153      -0.000239145634
154      -0.000382407555
155      -0.000376238425
156      -0.000556491443
157      -0.015359793216
158      -0.000327173602
159      -0.000007233234
160      -0.000029751453
161      -0.000057403254
162      -0.018574010824
163      -0.000756785302
164      -0.000004656258
165      -0.000060962242
166       0.000030531819
167       0.009969286312
168       0.000015586800
169       0.000248811902
170      -0.000231715421
171       0.000150440375
172       0.088053399461
173       0.003342630535
174      -0.000237524803
175      -0.000013755053
176      -0.000051072752
177      -0.000697724997
178      -0.000539952767
179      -0.000059804210
180      -0.000068792998
181       0.000142452849
182       0.000119521881
183      -0.000000776773
184       0.024725974242
185       0.000670541298
186       0.000140571155
187      -0.000019411652
188      -0.000016972160
189       0.006807084215
190      -0.000124932478
191       0.000065329261
 Sym=     1a
 Ene= -2.02378535088215E+01
 Spin= Alpha
 Occup= 2.000000
  1       0.006393365777
  2       0.000012650211
  3      -0.000051906173
  4      -0.000041433846
  5       0.000078448770
  6       0.029450652579
  7       0.003256851923
  8       0.000376011171
  9      -0.001355099618
 10       0.001003197202
 11      -0.408261164987
 12      -0.013913620211
 13      -0.000371286466
 14       0.000017443241
 15      -0.000175569194
 16       0.073956628703
 17       0.004645725844
 18      -0.001337519506
 19       0.000405155261
 20      -0.000337811532
 21       0.013869014021
 22       0.000462117830
 23       0.000147130135
 24      -0.000259154063
 25       0.000065958058
 26      -0.000175720061
 27      -0.000685321512
 28      -0.000013989867
 29       0.000386853301
 30      -0.000130751515
 31       0.081267372115
 32       0.002655761827
 33       0.000025195107
 34       0.000035488596
 35      -0.000041076014
 36       0.008886310217
 37       0.000283254724
 38       0.000232824025
 39      -0.000470578479
 40      -0.000181508925
 41      -0.077210950757
 42      -0.002885815093
 43      -0.000048280327
 44      -0.000049739181
 45      -0.000061072279
 46      -0.001302461173
 47      -0.000437068310
 48       0.000118823180
 49       0.000578365376
 50       0.000589242268
 51       0.018275515203
 52       0.000177315331
 53       0.000029583455
 54       0.000332568794
 55       0.000216608042
 56       0.092054243762
 57       0.003318929894
 58      -0.000498487955
 59       0.000267819011
 60      -0.000550876778
 61       0.079128068040
 62       0.004830977965
 63      -0.000450663364
 64      -0.001487325977
 65      -0.001035241994
 66      -0.005186553942
 67      -0.001393660649
 68       0.000314006060
 69      -0.000184734037
 70      -0.000205185716
 71       0.108097478847
 72       0.002070749861
 73       0.000708437247
 74      -0.000502255137
 75      -0.000662982409
 76       0.234145944872
 77       0.008669762267
 78       0.000060772271
 79      -0.000077891353
 80       0.000929100479
 81      -0.133021291654
 82      -0.006106550038
 83       0.000097352738
 84      -0.000236116822
 85       0.001120201760
 86      -0.020038994523
 87      -0.001707255607
 88      -0.001387069781
 89       0.001017604897
 90       0.000771464603
 91       0.305457278339
 92       0.008609380428
 93      -0.001291132139
 94       0.000934225951
 95      -0.000402852453
 96       0.043197196277
 97       0.001156459134
 98       0.001055228725
 99      -0.001011757441
100      -0.002256648575
101      -0.374259833278
102      -0.011028457897
103       0.001918975166
104      -0.001516811529
105       0.000598949266
106      -0.044198720518
107       0.001196208240
108       0.000761663917
109      -0.000299156413
110       0.001829975886
111       0.000025242570
112       0.000113252746
113       0.000909366567
114      -0.001594011825
115      -0.355324535829
116      -0.013036107396
117      -0.000594412486
118       0.000034291879
119      -0.000565988141
120      -0.057492003452
121      -0.003195348632
122       0.001303169171
123      -0.003246196831
124       0.001432606089
125       0.500118238385
126       0.016351494470
127       0.001693325859
128      -0.000781642941
129       0.002635581659
130      -0.053223265424
131      -0.006861456224
132       0.000641871536
133       0.001492151504
134       0.001367249217
135       0.121265856191
136       0.004409247715
137      -0.000022372424
138      -0.000329318592
139      -0.000127845732
140      -0.000840661988
141       0.000361654939