[Molden Format]
made by pyscf v[2.12.1]
[Atoms] (AU)
C   1   6    91.28133310204566   155.58871200605628    73.37995739176000
C   2   6    92.45862680847132   153.47410000669495    71.74156480396758
C   3   6    92.95752200756922   151.19699200745768    73.37806959315610
N   4   7    95.45573620258649   150.49400999628367    73.91285639833237
C   5   6    96.10958329361760   147.99201799307897    74.87473270270887
C   6   6    94.92094370933459   145.78859699168541    73.30058889452827
N   7   7    94.42394379215607   143.71745600642916    74.77457340086015
C   8   6    94.00442459250262   141.30616299594294    73.69554169235688
C   9   6    96.66516090341088   140.11752900524925    73.37428439613953
C   10   6    96.92783289141721   137.43599699533334    72.23288989249129
C   11   6    98.38103409534482   135.48391499202091    73.31948430384233
C   12   6    98.04843670383204   133.25403599184909    71.74345269705779
C   13   6    98.60023669441051   130.63865199299198    72.27446190191655
C   14   6   100.10257300745364   129.86009399484288    74.56481380103344
C   15   6    99.75864449684452   130.23992100903072    77.00067459284458
C   16   6    97.85001729378705   131.48148099393211    78.33292769341617
C   17   6    98.11647249459749   131.23014199585100    80.98610130147665
C   18   6   100.41059400049041   130.16432999873297    82.12183050068977
N   19   7   102.07355499321734   128.79428299927969    80.62894499145450
N   20   7   101.65970899705424   128.92656199496491    78.12127840525940
N   21   7   103.17904299974535   127.59620600934700    76.55280190462362
C   22   6   102.29654299716947   128.13476999910105    74.25489680798138
H   23   1   103.13747100921735   127.31463299954004    72.58060320327446
H   24   1   100.63358200444252   130.15677500596777    84.15517579182452
H   25   1    96.83523629241625   132.21090399634929    82.24654860766429
H   26   1    96.29477649161950   132.48114600044349    77.45042750186767
C   27   6    97.69317010103720   128.89066300005737    70.55670839469414
C   28   6    96.29288680328948   129.88655000940869    68.40808790133754
N   29   7    95.70518010772086   132.30539599065318    67.99612199369577
C   30   6    96.49319590166451   133.96835099294830    69.70254470307528
N   31   7    95.97540710738964   136.51759000430840    69.95198849482608
H   32   1    95.01165060110823   137.46624400837490    68.60650729248528
H   33   1    95.70329219573338   128.53538800687852    66.97189230501037
Cl   34   17    98.38669949426627   125.65166399437435    70.82882330635039
H   35   1    99.35990850510906   135.74658699892450    75.09960820290874
H   36   1    97.55333409057985   140.07217200667731    75.24700489420691
H   37   1    97.78576469692844   141.42143099830827    72.21399639180062
H   38   1    92.98397819221039   141.60095700214887    71.91730559189439
H   39   1    92.76476809093198   140.12319699309546    74.86528210677089
H   40   1    94.28788549539981   143.81761300281204    76.68130520861470
O   41   8    94.89448750579615   145.76214099601688    70.94409850857225
C   42   6    99.05188499873655   147.82382299495112    74.77079580054263
C   43   6   100.09312199577590   150.44298699407793    74.24545199460533
C   44   6    97.79899279869765   151.74122300240040    73.06626289287672
H   45   1    97.98419349891228   151.57115400066934    71.00834919680747
H   46   1    97.85190520577453   153.75756300718814    73.54813740435969
H   47   1   101.78253900306866   150.52424400800950    73.04547210715700
H   48   1   100.44272299177943   151.25179200526861    76.12194999850391
H   49   1    99.61880289279786   146.39142000336690    73.38562469930483
H   50   1    99.74730430706281   147.18887900441939    76.61705450148223
H   51   1    95.47274179128968   147.71044500216928    76.82681410130895
O   52   8    91.16605789982381   150.03859199069529    74.39285059452689
H   53   1    94.01009760702036   154.20542600111409    70.57937949570234
H   54   1    91.67439609816067   155.32226200199270    75.39629140611594
H   55   1    89.21964190014518   155.69642399520433    73.18720339953371
[GTO]
1 0
 s    3 1.00
             71.616837    0.15432897000916
             13.045096    0.53532814003178
             3.5305122     0.4446345400264
 s    3 1.00
             2.9412494  -0.099967230180286
             0.6834831    0.39951283032086
             0.2222899    0.70011547056228
 p    3 1.00
             2.9412494    0.15591627207801
             0.6834831    0.60768372830405
             0.2222899    0.39195739519611

2 0
 s    3 1.00
             71.616837    0.15432897000916
             13.045096    0.53532814003178
             3.5305122     0.4446345400264
 s    3 1.00
             2.9412494  -0.099967230180286
             0.6834831    0.39951283032086
             0.2222899    0.70011547056228
 p    3 1.00
             2.9412494    0.15591627207801
             0.6834831    0.60768372830405
             0.2222899    0.39195739519611

3 0
 s    3 1.00
             71.616837    0.15432897000916
             13.045096    0.53532814003178
             3.5305122     0.4446345400264
 s    3 1.00
             2.9412494  -0.099967230180286
             0.6834831    0.39951283032086
             0.2222899    0.70011547056228
 p    3 1.00
             2.9412494    0.15591627207801
             0.6834831    0.60768372830405
             0.2222899    0.39195739519611

4 0
 s    3 1.00
             99.106169    0.15432897004348
             18.052312    0.53532814115083
             4.8856602    0.44463454112527
 s    3 1.00
             3.7804559  -0.099967228388454
             0.8784966    0.39951282395386
             0.2857144    0.70011545891914
 p    3 1.00
             3.7804559    0.15591626904573
             0.8784966    0.60768371417822
             0.2857144    0.39195738611495

5 0
 s    3 1.00
             71.616837    0.15432897000916
             13.045096    0.53532814003178
             3.5305122     0.4446345400264
 s    3 1.00
             2.9412494  -0.099967230180286
             0.6834831    0.39951283032086
             0.2222899    0.70011547056228
 p    3 1.00
             2.9412494    0.15591627207801
             0.6834831    0.60768372830405
             0.2222899    0.39195739519611

6 0
 s    3 1.00
             71.616837    0.15432897000916
             13.045096    0.53532814003178
             3.5305122     0.4446345400264
 s    3 1.00
             2.9412494  -0.099967230180286
             0.6834831    0.39951283032086
             0.2222899    0.70011547056228
 p    3 1.00
             2.9412494    0.15591627207801
             0.6834831    0.60768372830405
             0.2222899    0.39195739519611

7 0
 s    3 1.00
             99.106169    0.15432897004348
             18.052312    0.53532814115083
             4.8856602    0.44463454112527
 s    3 1.00
             3.7804559  -0.099967228388454
             0.8784966    0.39951282395386
             0.2857144    0.70011545891914
 p    3 1.00
             3.7804559    0.15591626904573
             0.8784966    0.60768371417822
             0.2857144    0.39195738611495

8 0
 s    3 1.00
             71.616837    0.15432897000916
             13.045096    0.53532814003178
             3.5305122     0.4446345400264
 s    3 1.00
             2.9412494  -0.099967230180286
             0.6834831    0.39951283032086
             0.2222899    0.70011547056228
 p    3 1.00
             2.9412494    0.15591627207801
             0.6834831    0.60768372830405
             0.2222899    0.39195739519611

9 0
 s    3 1.00
             71.616837    0.15432897000916
             13.045096    0.53532814003178
             3.5305122     0.4446345400264
 s    3 1.00
             2.9412494  -0.099967230180286
             0.6834831    0.39951283032086
             0.2222899    0.70011547056228
 p    3 1.00
             2.9412494    0.15591627207801
             0.6834831    0.60768372830405
             0.2222899    0.39195739519611

10 0
 s    3 1.00
             71.616837    0.15432897000916
             13.045096    0.53532814003178
             3.5305122     0.4446345400264
 s    3 1.00
             2.9412494  -0.099967230180286
             0.6834831    0.39951283032086
             0.2222899    0.70011547056228
 p    3 1.00
             2.9412494    0.15591627207801
             0.6834831    0.60768372830405
             0.2222899    0.39195739519611

11 0
 s    3 1.00
             71.616837    0.15432897000916
             13.045096    0.53532814003178
             3.5305122     0.4446345400264
 s    3 1.00
             2.9412494  -0.099967230180286
             0.6834831    0.39951283032086
             0.2222899    0.70011547056228
 p    3 1.00
             2.9412494    0.15591627207801
             0.6834831    0.60768372830405
             0.2222899    0.39195739519611

12 0
 s    3 1.00
             71.616837    0.15432897000916
             13.045096    0.53532814003178
             3.5305122     0.4446345400264
 s    3 1.00
             2.9412494  -0.099967230180286
             0.6834831    0.39951283032086
             0.2222899    0.70011547056228
 p    3 1.00
             2.9412494    0.15591627207801
             0.6834831    0.60768372830405
             0.2222899    0.39195739519611

13 0
 s    3 1.00
             71.616837    0.15432897000916
             13.045096    0.53532814003178
             3.5305122     0.4446345400264
 s    3 1.00
             2.9412494  -0.099967230180286
             0.6834831    0.39951283032086
             0.2222899    0.70011547056228
 p    3 1.00
             2.9412494    0.15591627207801
             0.6834831    0.60768372830405
             0.2222899    0.39195739519611

14 0
 s    3 1.00
             71.616837    0.15432897000916
             13.045096    0.53532814003178
             3.5305122     0.4446345400264
 s    3 1.00
             2.9412494  -0.099967230180286
             0.6834831    0.39951283032086
             0.2222899    0.70011547056228
 p    3 1.00
             2.9412494    0.15591627207801
             0.6834831    0.60768372830405
             0.2222899    0.39195739519611

15 0
 s    3 1.00
             71.616837    0.15432897000916
             13.045096    0.53532814003178
             3.5305122     0.4446345400264
 s    3 1.00
             2.9412494  -0.099967230180286
             0.6834831    0.39951283032086
             0.2222899    0.70011547056228
 p    3 1.00
             2.9412494    0.15591627207801
             0.6834831    0.60768372830405
             0.2222899    0.39195739519611

16 0
 s    3 1.00
             71.616837    0.15432897000916
             13.045096    0.53532814003178
             3.5305122     0.4446345400264
 s    3 1.00
             2.9412494  -0.099967230180286
             0.6834831    0.39951283032086
             0.2222899    0.70011547056228
 p    3 1.00
             2.9412494    0.15591627207801
             0.6834831    0.60768372830405
             0.2222899    0.39195739519611

17 0
 s    3 1.00
             71.616837    0.15432897000916
             13.045096    0.53532814003178
             3.5305122     0.4446345400264
 s    3 1.00
             2.9412494  -0.099967230180286
             0.6834831    0.39951283032086
             0.2222899    0.70011547056228
 p    3 1.00
             2.9412494    0.15591627207801
             0.6834831    0.60768372830405
             0.2222899    0.39195739519611

18 0
 s    3 1.00
             71.616837    0.15432897000916
             13.045096    0.53532814003178
             3.5305122     0.4446345400264
 s    3 1.00
             2.9412494  -0.099967230180286
             0.6834831    0.39951283032086
             0.2222899    0.70011547056228
 p    3 1.00
             2.9412494    0.15591627207801
             0.6834831    0.60768372830405
             0.2222899    0.39195739519611

19 0
 s    3 1.00
             99.106169    0.15432897004348
             18.052312    0.53532814115083
             4.8856602    0.44463454112527
 s    3 1.00
             3.7804559  -0.099967228388454
             0.8784966    0.39951282395386
             0.2857144    0.70011545891914
 p    3 1.00
             3.7804559    0.15591626904573
             0.8784966    0.60768371417822
             0.2857144    0.39195738611495

20 0
 s    3 1.00
             99.106169    0.15432897004348
             18.052312    0.53532814115083
             4.8856602    0.44463454112527
 s    3 1.00
             3.7804559  -0.099967228388454
             0.8784966    0.39951282395386
             0.2857144    0.70011545891914
 p    3 1.00
             3.7804559    0.15591626904573
             0.8784966    0.60768371417822
             0.2857144    0.39195738611495

21 0
 s    3 1.00
             99.106169    0.15432897004348
             18.052312    0.53532814115083
             4.8856602    0.44463454112527
 s    3 1.00
             3.7804559  -0.099967228388454
             0.8784966    0.39951282395386
             0.2857144    0.70011545891914
 p    3 1.00
             3.7804559    0.15591626904573
             0.8784966    0.60768371417822
             0.2857144    0.39195738611495

22 0
 s    3 1.00
             71.616837    0.15432897000916
             13.045096    0.53532814003178
             3.5305122     0.4446345400264
 s    3 1.00
             2.9412494  -0.099967230180286
             0.6834831    0.39951283032086
             0.2222899    0.70011547056228
 p    3 1.00
             2.9412494    0.15591627207801
             0.6834831    0.60768372830405
             0.2222899    0.39195739519611

23 0
 s    3 1.00
            3.42525091    0.15432897089257
            0.62391373    0.53532814262735
             0.1688554    0.44463454169048

24 0
 s    3 1.00
            3.42525091    0.15432897089257
            0.62391373    0.53532814262735
             0.1688554    0.44463454169048

25 0
 s    3 1.00
            3.42525091    0.15432897089257
            0.62391373    0.53532814262735
             0.1688554    0.44463454169048

26 0
 s    3 1.00
            3.42525091    0.15432897089257
            0.62391373    0.53532814262735
             0.1688554    0.44463454169048

27 0
 s    3 1.00
             71.616837    0.15432897000916
             13.045096    0.53532814003178
             3.5305122     0.4446345400264
 s    3 1.00
             2.9412494  -0.099967230180286
             0.6834831    0.39951283032086
             0.2222899    0.70011547056228
 p    3 1.00
             2.9412494    0.15591627207801
             0.6834831    0.60768372830405
             0.2222899    0.39195739519611

28 0
 s    3 1.00
             71.616837    0.15432897000916
             13.045096    0.53532814003178
             3.5305122     0.4446345400264
 s    3 1.00
             2.9412494  -0.099967230180286
             0.6834831    0.39951283032086
             0.2222899    0.70011547056228
 p    3 1.00
             2.9412494    0.15591627207801
             0.6834831    0.60768372830405
             0.2222899    0.39195739519611

29 0
 s    3 1.00
             99.106169    0.15432897004348
             18.052312    0.53532814115083
             4.8856602    0.44463454112527
 s    3 1.00
             3.7804559  -0.099967228388454
             0.8784966    0.39951282395386
             0.2857144    0.70011545891914
 p    3 1.00
             3.7804559    0.15591626904573
             0.8784966    0.60768371417822
             0.2857144    0.39195738611495

30 0
 s    3 1.00
             71.616837    0.15432897000916
             13.045096    0.53532814003178
             3.5305122     0.4446345400264
 s    3 1.00
             2.9412494  -0.099967230180286
             0.6834831    0.39951283032086
             0.2222899    0.70011547056228
 p    3 1.00
             2.9412494    0.15591627207801
             0.6834831    0.60768372830405
             0.2222899    0.39195739519611

31 0
 s    3 1.00
             99.106169    0.15432897004348
             18.052312    0.53532814115083
             4.8856602    0.44463454112527
 s    3 1.00
             3.7804559  -0.099967228388454
             0.8784966    0.39951282395386
             0.2857144    0.70011545891914
 p    3 1.00
             3.7804559    0.15591626904573
             0.8784966    0.60768371417822
             0.2857144    0.39195738611495

32 0
 s    3 1.00
            3.42525091    0.15432897089257
            0.62391373    0.53532814262735
             0.1688554    0.44463454169048

33 0
 s    3 1.00
            3.42525091    0.15432897089257
            0.62391373    0.53532814262735
             0.1688554    0.44463454169048

34 0
 s    3 1.00
            601.345614    0.15432896706901
            109.535854    0.53532814223939
            29.6446769    0.44463454219883
 s    3 1.00
            38.9604189  -0.099967229208119
            9.05356348    0.39951282603245
            2.94449983    0.70011546905686
 s    3 1.00
            2.12938649   -0.21962036896098
           0.594093427    0.22559543395992
           0.232524141    0.90039842584004
 p    3 1.00
            38.9604189    0.15591627498269
            9.05356348    0.60768371893254
            2.94449983    0.39195739295649
 p    3 1.00
            2.12938649   0.010587604301366
           0.594093427     0.5951670050768
           0.232524141    0.46200101205962

35 0
 s    3 1.00
            3.42525091    0.15432897089257
            0.62391373    0.53532814262735
             0.1688554    0.44463454169048

36 0
 s    3 1.00
            3.42525091    0.15432897089257
            0.62391373    0.53532814262735
             0.1688554    0.44463454169048

37 0
 s    3 1.00
            3.42525091    0.15432897089257
            0.62391373    0.53532814262735
             0.1688554    0.44463454169048

38 0
 s    3 1.00
            3.42525091    0.15432897089257
            0.62391373    0.53532814262735
             0.1688554    0.44463454169048

39 0
 s    3 1.00
            3.42525091    0.15432897089257
            0.62391373    0.53532814262735
             0.1688554    0.44463454169048

40 0
 s    3 1.00
            3.42525091    0.15432897089257
            0.62391373    0.53532814262735
             0.1688554    0.44463454169048

41 0
 s    3 1.00
             130.70932    0.15432896895444
             23.808861    0.53532813584195
             6.4436083    0.44463453586873
 s    3 1.00
             5.0331513  -0.099967228629041
             1.1695961    0.39951282471642
              0.380389    0.70011546050304
 p    3 1.00
             5.0331513    0.15591626807468
             1.1695961    0.60768371429106
              0.380389    0.39195738618773

42 0
 s    3 1.00
             71.616837    0.15432897000916
             13.045096    0.53532814003178
             3.5305122     0.4446345400264
 s    3 1.00
             2.9412494  -0.099967230180286
             0.6834831    0.39951283032086
             0.2222899    0.70011547056228
 p    3 1.00
             2.9412494    0.15591627207801
             0.6834831    0.60768372830405
             0.2222899    0.39195739519611

43 0
 s    3 1.00
             71.616837    0.15432897000916
             13.045096    0.53532814003178
             3.5305122     0.4446345400264
 s    3 1.00
             2.9412494  -0.099967230180286
             0.6834831    0.39951283032086
             0.2222899    0.70011547056228
 p    3 1.00
             2.9412494    0.15591627207801
             0.6834831    0.60768372830405
             0.2222899    0.39195739519611

44 0
 s    3 1.00
             71.616837    0.15432897000916
             13.045096    0.53532814003178
             3.5305122     0.4446345400264
 s    3 1.00
             2.9412494  -0.099967230180286
             0.6834831    0.39951283032086
             0.2222899    0.70011547056228
 p    3 1.00
             2.9412494    0.15591627207801
             0.6834831    0.60768372830405
             0.2222899    0.39195739519611

45 0
 s    3 1.00
            3.42525091    0.15432897089257
            0.62391373    0.53532814262735
             0.1688554    0.44463454169048

46 0
 s    3 1.00
            3.42525091    0.15432897089257
            0.62391373    0.53532814262735
             0.1688554    0.44463454169048

47 0
 s    3 1.00
            3.42525091    0.15432897089257
            0.62391373    0.53532814262735
             0.1688554    0.44463454169048

48 0
 s    3 1.00
            3.42525091    0.15432897089257
            0.62391373    0.53532814262735
             0.1688554    0.44463454169048

49 0
 s    3 1.00
            3.42525091    0.15432897089257
            0.62391373    0.53532814262735
             0.1688554    0.44463454169048

50 0
 s    3 1.00
            3.42525091    0.15432897089257
            0.62391373    0.53532814262735
             0.1688554    0.44463454169048

51 0
 s    3 1.00
            3.42525091    0.15432897089257
            0.62391373    0.53532814262735
             0.1688554    0.44463454169048

52 0
 s    3 1.00
             130.70932    0.15432896895444
             23.808861    0.53532813584195
             6.4436083    0.44463453586873
 s    3 1.00
             5.0331513  -0.099967228629041
             1.1695961    0.39951282471642
              0.380389    0.70011546050304
 p    3 1.00
             5.0331513    0.15591626807468
             1.1695961    0.60768371429106
              0.380389    0.39195738618773

53 0
 s    3 1.00
            3.42525091    0.15432897089257
            0.62391373    0.53532814262735
             0.1688554    0.44463454169048

54 0
 s    3 1.00
            3.42525091    0.15432897089257
            0.62391373    0.53532814262735
             0.1688554    0.44463454169048

55 0
 s    3 1.00
            3.42525091    0.15432897089257
            0.62391373    0.53532814262735
             0.1688554    0.44463454169048

[5d]
[7f]
[9g]

[MO]
 Sym= A
 Ene=               0
 Spin= Alpha
 Occup=    1.00000
   1              1.38e-12
   2           -2.8977e-12
   3           -7.2675e-12
   4            8.5705e-12
   5            8.0628e-12
   6            3.0452e-12
   7           -1.2307e-11
   8            8.1363e-12
   9           -8.5731e-12
  10          -1.08433e-11
  11           -4.6034e-12
  12           1.76036e-11
  13            6.2387e-12
  14          -3.25736e-11
  15          -4.54998e-11
  16            2.6586e-12
  17          -1.42341e-11
  18           -1.0489e-11
  19          -8.10452e-11
  20           -1.6293e-10
  21           -3.9727e-12
  22            4.9233e-12
  23           -8.9426e-12
  24          -1.20928e-11
  25            4.1025e-12
  26           2.55837e-11
  27         -1.044725e-10
  28           6.26923e-11
  29           5.68321e-11
  30           4.85738e-11
  31          -5.55659e-11
  32          5.588709e-10
  33         -1.765381e-10
  34         -4.453542e-10
  35          -1.08825e-10
  36           1.60406e-10
  37        -1.0744484e-09
  38         -5.760999e-10
  39         -9.442793e-10
  40         -7.691701e-10
  41         1.1303123e-09
  42       -1.89934956e-08
  43        -3.2168977e-09
  44        1.03802781e-08
  45         2.0137946e-09
  46        -3.4717815e-09
  47        2.67813644e-08
  48        1.42201688e-08
  49        5.36371595e-08
  50         6.3511338e-08
  51       -9.00761162e-08
  52        1.07884197e-06
  53        1.17477113e-07
  54       -8.09436996e-07
  55        -4.4612489e-07
  56       -6.66372695e-07
  57        2.07729598e-06
  58       -1.74013328e-06
  59       -3.29851294e-06
  60       -3.25413326e-06
  61          1.214148e-07
  62       -1.07621155e-05
  63       -1.04805554e-05
  64        1.44565572e-05
  65        -1.1900141e-05
  66       -2.35094351e-06
  67        8.82326982e-06
  68        -1.0820519e-05
  69       -8.59762793e-06
  70        -1.2508293e-05
  71        4.88471316e-08
  72        1.75571517e-06
  73        2.53362187e-06
  74        2.06653775e-06
  75       -1.20307412e-06
  76       -1.87026036e-08
  77         2.5890889e-07
  78       -2.29823795e-08
  79       -4.50002958e-07
  80         4.1979472e-09
  81         1.9279452e-09
  82       -3.85259102e-08
  83          2.749382e-09
  84        -2.5424191e-09
  85        3.25546686e-08
  86          9.668012e-10
  87          1.162256e-09
  88        -3.0087787e-09
  89       -1.47241866e-08
  90         -4.407391e-10
  91         5.8664695e-09
  92       -7.00982072e-08
  93       -2.65406735e-08
  94       -8.17075657e-08
  95        6.01984559e-08
  96        2.23587985e-08
  97       -1.70819176e-07
  98        8.65515852e-08
  99       -8.23604214e-08
 100        3.29698308e-07
 101       -1.57246378e-07
 102        3.55345134e-06
 103        2.77285377e-06
 104        4.22148806e-06
 105       -2.52656997e-06
 106       -2.93942246e-06
 107         1.4542443e-06
 108       -3.09021938e-05
 109       -1.08279631e-05
 110       -7.63811808e-06
 111        3.82237026e-05
 112        -1.0696705e-09
 113         4.6282242e-09
 114        -6.7882971e-09
 115       -5.26589884e-05
 116        0.000374106161
 117         7.4350803e-05
 118       -0.000346285731
 119        2.94734728e-05
 120        5.09873212e-07
 121       -1.45505421e-05
 122          4.491867e-06
 123        1.88012704e-05
 124        1.34735496e-05
 125       -1.99206018e-07
 126       -4.77165811e-07
 127        4.14692467e-07
 128       -8.12016154e-07
 129        5.36472473e-07
 130        -3.2496917e-07
 131        4.31002752e-07
 132         -2.591375e-09
 133       -3.14458346e-06
 134       -4.23176815e-07
 135       -8.52178134e-08
 136        9.61799504e-07
 137        2.13416061e-07
 138       -6.62695454e-07
 139       -1.03976734e-07
 140        1.31398833e-08
 141        2.90718505e-05
 142           0.994504737
 143          0.0157398613
 144        -0.00180620461
 145       -2.35028294e-05
 146        0.000110936898
 147       -9.11535699e-06
 148        4.75064453e-05
 149        -0.00023357238
 150        1.81808374e-05
 151         6.0099123e-08
 152         9.3709916e-09
 153         1.1030214e-09
 154         1.4325978e-09
 155           5.75386e-11
 156         -2.613796e-10
 157            2.0038e-12
 158            7.9737e-12
 159          -8.52374e-11
 160           6.22467e-11
 161           3.42906e-11
 162           -2.2935e-12
 163           3.41117e-11
 164           3.38785e-11
 165          -1.01882e-11
 166          -2.00053e-11
 167           -1.2614e-12
 168            1.7968e-12
 169           -6.7967e-12
 170            4.9179e-12
 171           -2.5628e-12
 172            -2.977e-13
 173            2.2629e-12
 174            2.3184e-12
 175             9.468e-13
 176            7.1948e-12
 177          -2.95473e-11
 178           2.10465e-11
 179           -2.5164e-12
 180           -1.2494e-12
 181          -8.45634e-11
 182          -1.46316e-11
 183           4.69413e-11
 184             8.648e-13
 185           -4.2004e-12
 186             8.527e-13
 187           1.28901e-11
 188           -4.5016e-12
 189            3.7602e-12
 190            3.9359e-12
 191            5.2366e-12
 Sym= A
 Ene=               1
 Spin= Alpha
 Occup=    1.00000
   1       -6.43995657e-06
   2        2.54556286e-05
   3        1.61624306e-05
   4       -6.19462277e-06
   5        5.98431249e-05
   6       -6.50738967e-06
   7        0.000176480246
   8       -0.000327288165
   9       -0.000191706604
  10          0.0001304317
  11        0.000560515678
  12        -0.00676174582
  13         0.00458703479
  14         0.00293810975
  15        -0.00272511625
  16        -2.0718161e-05
  17         0.00031055859
  18        -0.00035712176
  19       -0.000424678581
  20       -4.30335006e-05
  21        3.74573042e-06
  22       -4.69004289e-05
  23        5.22381292e-05
  24       -7.10980733e-05
  25        2.82405486e-05
  26        1.03477929e-05
  27       -4.61340113e-05
  28        2.38150266e-05
  29       -2.30689497e-05
  30       -5.08955019e-05
  31       -3.74712344e-06
  32        2.84707179e-05
  33        5.19127778e-06
  34        2.45756003e-05
  35       -1.14391444e-05
  36        9.20152437e-07
  37       -3.55000547e-06
  38       -7.43181181e-07
  39       -5.95288422e-06
  40       -1.66314524e-06
  41        7.66464961e-08
  42       -1.79041279e-07
  43         5.3517874e-07
  44       -1.05084546e-07
  45       -4.74414797e-08
  46        1.05453626e-07
  47       -4.91862917e-07
  48        6.22623315e-08
  49       -5.56804713e-07
  50       -1.69468257e-07
  51       -1.66063027e-08
  52        6.38421998e-08
  53        7.07645537e-08
  54         1.6025123e-07
  55        -1.3215504e-07
  56        1.63115396e-08
  57       -7.52332323e-08
  58       -1.17038828e-08
  59       -8.54983196e-08
  60         -3.552291e-08
  61         -8.560215e-09
  62        3.78465968e-08
  63       -4.18140407e-08
  64        5.85614112e-08
  65         4.2385672e-09
  66         -9.315291e-10
  67         4.9538768e-09
  68        1.73403809e-08
  69        -7.6394309e-09
  70         -6.778194e-10
  71         -8.634386e-10
  72         2.8650675e-09
  73         8.5891646e-09
  74        -8.5720103e-09
  75        1.30066732e-08
  76         -3.632875e-10
  77         1.7736289e-09
  78       -1.27439442e-08
  79        -6.7549301e-09
  80        -5.8190187e-09
  81           9.61869e-11
  82         -2.274247e-10
  83         4.4201895e-09
  84        -9.3107852e-09
  85         8.0446988e-09
  86          2.443774e-10
  87         -5.903748e-10
  88        -2.9516249e-09
  89        1.29580854e-08
  90        -1.8731474e-09
  91        -2.2687833e-09
  92         1.2064621e-08
  93        2.54793686e-08
  94        -1.9173577e-09
  95         7.4938835e-09
  96         2.6360166e-09
  97       -1.31259715e-08
  98       -1.37831226e-08
  99         7.3984876e-09
 100         1.8836723e-09
 101        -5.9377599e-09
 102        3.07354834e-08
 103        3.09641479e-08