Generated by MOKIT
SP        RHF                                                         MYBAS
Number of atoms                            I               55
Charge                                     I                0
Multiplicity                               I                1
Number of electrons                        I              242
Number of alpha electrons                  I              121
Number of beta electrons                   I              121
Number of basis functions                  I              191
Number of independent functions            I              191
Atomic numbers                             I   N=          55
           6           6           6           7           6           6
           7           6           6           6           6           6
           6           6           6           6           6           6
           7           7           7           6           1           1
           1           1           6           6           7           6
           7           1           1          17           1           1
           1           1           1           1           8           6
           6           6           1           1           1           1
           1           1           1           8           1           1
           1
Nuclear charges                            R   N=          55
  6.00000000E+00  6.00000000E+00  6.00000000E+00  7.00000000E+00  6.00000000E+00
  6.00000000E+00  7.00000000E+00  6.00000000E+00  6.00000000E+00  6.00000000E+00
  6.00000000E+00  6.00000000E+00  6.00000000E+00  6.00000000E+00  6.00000000E+00
  6.00000000E+00  6.00000000E+00  6.00000000E+00  7.00000000E+00  7.00000000E+00
  7.00000000E+00  6.00000000E+00  1.00000000E+00  1.00000000E+00  1.00000000E+00
  1.00000000E+00  6.00000000E+00  6.00000000E+00  7.00000000E+00  6.00000000E+00
  7.00000000E+00  1.00000000E+00  1.00000000E+00  1.70000000E+01  1.00000000E+00
  1.00000000E+00  1.00000000E+00  1.00000000E+00  1.00000000E+00  1.00000000E+00
  8.00000000E+00  6.00000000E+00  6.00000000E+00  6.00000000E+00  1.00000000E+00
  1.00000000E+00  1.00000000E+00  1.00000000E+00  1.00000000E+00  1.00000000E+00
  1.00000000E+00  8.00000000E+00  1.00000000E+00  1.00000000E+00  1.00000000E+00
Current cartesian coordinates              R   N=         165
  9.12813331E+01  1.55588712E+02  7.33799574E+01  9.24586268E+01  1.53474100E+02
  7.17415648E+01  9.29575220E+01  1.51196992E+02  7.33780696E+01  9.54557362E+01
  1.50494010E+02  7.39128564E+01  9.61095833E+01  1.47992018E+02  7.48747327E+01
  9.49209437E+01  1.45788597E+02  7.33005889E+01  9.44239438E+01  1.43717456E+02
  7.47745734E+01  9.40044246E+01  1.41306163E+02  7.36955417E+01  9.66651609E+01
  1.40117529E+02  7.33742844E+01  9.69278329E+01  1.37435997E+02  7.22328899E+01
  9.83810341E+01  1.35483915E+02  7.33194843E+01  9.80484367E+01  1.33254036E+02
  7.17434527E+01  9.86002367E+01  1.30638652E+02  7.22744619E+01  1.00102573E+02
  1.29860094E+02  7.45648138E+01  9.97586445E+01  1.30239921E+02  7.70006746E+01
  9.78500173E+01  1.31481481E+02  7.83329277E+01  9.81164725E+01  1.31230142E+02
  8.09861013E+01  1.00410594E+02  1.30164330E+02  8.21218305E+01  1.02073555E+02
  1.28794283E+02  8.06289450E+01  1.01659709E+02  1.28926562E+02  7.81212784E+01
  1.03179043E+02  1.27596206E+02  7.65528019E+01  1.02296543E+02  1.28134770E+02
  7.42548968E+01  1.03137471E+02  1.27314633E+02  7.25806032E+01  1.00633582E+02
  1.30156775E+02  8.41551758E+01  9.68352363E+01  1.32210904E+02  8.22465486E+01
  9.62947765E+01  1.32481146E+02  7.74504275E+01  9.76931701E+01  1.28890663E+02
  7.05567084E+01  9.62928868E+01  1.29886550E+02  6.84080879E+01  9.57051801E+01
  1.32305396E+02  6.79961220E+01  9.64931959E+01  1.33968351E+02  6.97025447E+01
  9.59754071E+01  1.36517590E+02  6.99519885E+01  9.50116506E+01  1.37466244E+02
  6.86065073E+01  9.57032922E+01  1.28535388E+02  6.69718923E+01  9.83866995E+01
  1.25651664E+02  7.08288233E+01  9.93599085E+01  1.35746587E+02  7.50996082E+01
  9.75533341E+01  1.40072172E+02  7.52470049E+01  9.77857647E+01  1.41421431E+02
  7.22139964E+01  9.29839782E+01  1.41600957E+02  7.19173056E+01  9.27647681E+01
  1.40123197E+02  7.48652821E+01  9.42878855E+01  1.43817613E+02  7.66813052E+01
  9.48944875E+01  1.45762141E+02  7.09440985E+01  9.90518850E+01  1.47823823E+02
  7.47707958E+01  1.00093122E+02  1.50442987E+02  7.42454520E+01  9.77989928E+01
  1.51741223E+02  7.30662629E+01  9.79841935E+01  1.51571154E+02  7.10083492E+01
  9.78519052E+01  1.53757563E+02  7.35481374E+01  1.01782539E+02  1.50524244E+02
  7.30454721E+01  1.00442723E+02  1.51251792E+02  7.61219500E+01  9.96188029E+01
  1.46391420E+02  7.33856247E+01  9.97473043E+01  1.47188879E+02  7.66170545E+01
  9.54727418E+01  1.47710445E+02  7.68268141E+01  9.11660579E+01  1.50038592E+02
  7.43928506E+01  9.40100976E+01  1.54205426E+02  7.05793795E+01  9.16743961E+01
  1.55322262E+02  7.53962914E+01  8.92196419E+01  1.55696424E+02  7.31872034E+01
Int Atom Types                             I   N=          55
           0           0           0           0           0           0
           0           0           0           0           0           0
           0           0           0           0           0           0
           0           0           0           0           0           0
           0           0           0           0           0           0
           0           0           0           0           0           0
           0           0           0           0           0           0
           0           0           0           0           0           0
           0           0           0           0           0           0
           0
Real atomic weights                        R   N=          55
  1.20000000E+01  1.20000000E+01  1.20000000E+01  1.40030740E+01  1.20000000E+01
  1.20000000E+01  1.40030740E+01  1.20000000E+01  1.20000000E+01  1.20000000E+01
  1.20000000E+01  1.20000000E+01  1.20000000E+01  1.20000000E+01  1.20000000E+01
  1.20000000E+01  1.20000000E+01  1.20000000E+01  1.40030740E+01  1.40030740E+01
  1.40030740E+01  1.20000000E+01  1.00782504E+00  1.00782504E+00  1.00782504E+00
  1.00782504E+00  1.20000000E+01  1.20000000E+01  1.40030740E+01  1.20000000E+01
  1.40030740E+01  1.00782504E+00  1.00782504E+00  3.49688527E+01  1.00782504E+00
  1.00782504E+00  1.00782504E+00  1.00782504E+00  1.00782504E+00  1.00782504E+00
  1.59949146E+01  1.20000000E+01  1.20000000E+01  1.20000000E+01  1.00782504E+00
  1.00782504E+00  1.00782504E+00  1.00782504E+00  1.00782504E+00  1.00782504E+00
  1.00782504E+00  1.59949146E+01  1.00782504E+00  1.00782504E+00  1.00782504E+00
Number of contracted shells                I               89
Number of primitive shells                 I              267
Highest angular momentum                   I                1
Largest degree of contraction              I                3
Shell types                                I   N=          89
           0          -1           0          -1           0          -1
           0          -1           0          -1           0          -1
           0          -1           0          -1           0          -1
           0          -1           0          -1           0          -1
           0          -1           0          -1           0          -1
           0          -1           0          -1           0          -1
           0          -1           0          -1           0          -1
           0          -1           0           0           0           0
           0          -1           0          -1           0          -1
           0          -1           0          -1           0           0
           0          -1          -1           0           0           0
           0           0           0           0          -1           0
          -1           0          -1           0          -1           0
           0           0           0           0           0           0
           0          -1           0           0           0
Number of primitives per shell             I   N=          89
           3           3           3           3           3           3
           3           3           3           3           3           3
           3           3           3           3           3           3
           3           3           3           3           3           3
           3           3           3           3           3           3
           3           3           3           3           3           3
           3           3           3           3           3           3
           3           3           3           3           3           3
           3           3           3           3           3           3
           3           3           3           3           3           3
           3           3           3           3           3           3
           3           3           3           3           3           3
           3           3           3           3           3           3
           3           3           3           3           3           3
           3           3           3           3           3
Shell to atom map                          I   N=          89
           1           1           2           2           3           3
           4           4           5           5           6           6
           7           7           8           8           9           9
          10          10          11          11          12          12
          13          13          14          14          15          15
          16          16          17          17          18          18
          19          19          20          20          21          21
          22          22          23          24          25          26
          27          27          28          28          29          29
          30          30          31          31          32          33
          34          34          34          35          36          37
          38          39          40          41          41          42
          42          43          43          44          44          45
          46          47          48          49          50          51
          52          52          53          54          55
Primitive exponents                        R   N=         267
  7.16168370E+01  1.30450960E+01  3.53051220E+00  2.94124940E+00  6.83483100E-01
  2.22289900E-01  7.16168370E+01  1.30450960E+01  3.53051220E+00  2.94124940E+00
  6.83483100E-01  2.22289900E-01  7.16168370E+01  1.30450960E+01  3.53051220E+00
  2.94124940E+00  6.83483100E-01  2.22289900E-01  9.91061690E+01  1.80523120E+01
  4.88566020E+00  3.78045590E+00  8.78496600E-01  2.85714400E-01  7.16168370E+01
  1.30450960E+01  3.53051220E+00  2.94124940E+00  6.83483100E-01  2.22289900E-01
  7.16168370E+01  1.30450960E+01  3.53051220E+00  2.94124940E+00  6.83483100E-01
  2.22289900E-01  9.91061690E+01  1.80523120E+01  4.88566020E+00  3.78045590E+00
  8.78496600E-01  2.85714400E-01  7.16168370E+01  1.30450960E+01  3.53051220E+00
  2.94124940E+00  6.83483100E-01  2.22289900E-01  7.16168370E+01  1.30450960E+01
  3.53051220E+00  2.94124940E+00  6.83483100E-01  2.22289900E-01  7.16168370E+01
  1.30450960E+01  3.53051220E+00  2.94124940E+00  6.83483100E-01  2.22289900E-01
  7.16168370E+01  1.30450960E+01  3.53051220E+00  2.94124940E+00  6.83483100E-01
  2.22289900E-01  7.16168370E+01  1.30450960E+01  3.53051220E+00  2.94124940E+00
  6.83483100E-01  2.22289900E-01  7.16168370E+01  1.30450960E+01  3.53051220E+00
  2.94124940E+00  6.83483100E-01  2.22289900E-01  7.16168370E+01  1.30450960E+01
  3.53051220E+00  2.94124940E+00  6.83483100E-01  2.22289900E-01  7.16168370E+01
  1.30450960E+01  3.53051220E+00  2.94124940E+00  6.83483100E-01  2.22289900E-01
  7.16168370E+01  1.30450960E+01  3.53051220E+00  2.94124940E+00  6.83483100E-01
  2.22289900E-01  7.16168370E+01  1.30450960E+01  3.53051220E+00  2.94124940E+00
  6.83483100E-01  2.22289900E-01  7.16168370E+01  1.30450960E+01  3.53051220E+00
  2.94124940E+00  6.83483100E-01  2.22289900E-01  9.91061690E+01  1.80523120E+01
  4.88566020E+00  3.78045590E+00  8.78496600E-01  2.85714400E-01  9.91061690E+01
  1.80523120E+01  4.88566020E+00  3.78045590E+00  8.78496600E-01  2.85714400E-01
  9.91061690E+01  1.80523120E+01  4.88566020E+00  3.78045590E+00  8.78496600E-01
  2.85714400E-01  7.16168370E+01  1.30450960E+01  3.53051220E+00  2.94124940E+00
  6.83483100E-01  2.22289900E-01  3.42525091E+00  6.23913730E-01  1.68855400E-01
  3.42525091E+00  6.23913730E-01  1.68855400E-01  3.42525091E+00  6.23913730E-01
  1.68855400E-01  3.42525091E+00  6.23913730E-01  1.68855400E-01  7.16168370E+01
  1.30450960E+01  3.53051220E+00  2.94124940E+00  6.83483100E-01  2.22289900E-01
  7.16168370E+01  1.30450960E+01  3.53051220E+00  2.94124940E+00  6.83483100E-01
  2.22289900E-01  9.91061690E+01  1.80523120E+01  4.88566020E+00  3.78045590E+00
  8.78496600E-01  2.85714400E-01  7.16168370E+01  1.30450960E+01  3.53051220E+00
  2.94124940E+00  6.83483100E-01  2.22289900E-01  9.91061690E+01  1.80523120E+01
  4.88566020E+00  3.78045590E+00  8.78496600E-01  2.85714400E-01  3.42525091E+00
  6.23913730E-01  1.68855400E-01  3.42525091E+00  6.23913730E-01  1.68855400E-01
  6.01345614E+02  1.09535854E+02  2.96446769E+01  3.89604189E+01  9.05356348E+00
  2.94449983E+00  2.12938649E+00  5.94093427E-01  2.32524141E-01  3.42525091E+00
  6.23913730E-01  1.68855400E-01  3.42525091E+00  6.23913730E-01  1.68855400E-01
  3.42525091E+00  6.23913730E-01  1.68855400E-01  3.42525091E+00  6.23913730E-01
  1.68855400E-01  3.42525091E+00  6.23913730E-01  1.68855400E-01  3.42525091E+00
  6.23913730E-01  1.68855400E-01  1.30709320E+02  2.38088610E+01  6.44360830E+00
  5.03315130E+00  1.16959610E+00  3.80389000E-01  7.16168370E+01  1.30450960E+01
  3.53051220E+00  2.94124940E+00  6.83483100E-01  2.22289900E-01  7.16168370E+01
  1.30450960E+01  3.53051220E+00  2.94124940E+00  6.83483100E-01  2.22289900E-01
  7.16168370E+01  1.30450960E+01  3.53051220E+00  2.94124940E+00  6.83483100E-01
  2.22289900E-01  3.42525091E+00  6.23913730E-01  1.68855400E-01  3.42525091E+00
  6.23913730E-01  1.68855400E-01  3.42525091E+00  6.23913730E-01  1.68855400E-01
  3.42525091E+00  6.23913730E-01  1.68855400E-01  3.42525091E+00  6.23913730E-01
  1.68855400E-01  3.42525091E+00  6.23913730E-01  1.68855400E-01  3.42525091E+00
  6.23913730E-01  1.68855400E-01  1.30709320E+02  2.38088610E+01  6.44360830E+00
  5.03315130E+00  1.16959610E+00  3.80389000E-01  3.42525091E+00  6.23913730E-01
  1.68855400E-01  3.42525091E+00  6.23913730E-01  1.68855400E-01  3.42525091E+00
  6.23913730E-01  1.68855400E-01
Contraction coefficients                   R   N=         267
  1.54328970E-01  5.35328140E-01  4.44634540E-01 -9.99672301E-02  3.99512830E-01
  7.00115470E-01  1.54328970E-01  5.35328140E-01  4.44634540E-01 -9.99672301E-02
  3.99512830E-01  7.00115470E-01  1.54328970E-01  5.35328140E-01  4.44634540E-01
 -9.99672301E-02  3.99512830E-01  7.00115470E-01  1.54328970E-01  5.35328141E-01
  4.44634541E-01 -9.99672284E-02  3.99512824E-01  7.00115459E-01  1.54328970E-01
  5.35328140E-01  4.44634540E-01 -9.99672301E-02  3.99512830E-01  7.00115470E-01
  1.54328970E-01  5.35328140E-01  4.44634540E-01 -9.99672301E-02  3.99512830E-01
  7.00115470E-01  1.54328970E-01  5.35328141E-01  4.44634541E-01 -9.99672284E-02
  3.99512824E-01  7.00115459E-01  1.54328970E-01  5.35328140E-01  4.44634540E-01
 -9.99672301E-02  3.99512830E-01  7.00115470E-01  1.54328970E-01  5.35328140E-01
  4.44634540E-01 -9.99672301E-02  3.99512830E-01  7.00115470E-01  1.54328970E-01
  5.35328140E-01  4.44634540E-01 -9.99672301E-02  3.99512830E-01  7.00115470E-01
  1.54328970E-01  5.35328140E-01  4.44634540E-01 -9.99672301E-02  3.99512830E-01
  7.00115470E-01  1.54328970E-01  5.35328140E-01  4.44634540E-01 -9.99672301E-02
  3.99512830E-01  7.00115470E-01  1.54328970E-01  5.35328140E-01  4.44634540E-01
 -9.99672301E-02  3.99512830E-01  7.00115470E-01  1.54328970E-01  5.35328140E-01
  4.44634540E-01 -9.99672301E-02  3.99512830E-01  7.00115470E-01  1.54328970E-01
  5.35328140E-01  4.44634540E-01 -9.99672301E-02  3.99512830E-01  7.00115470E-01
  1.54328970E-01  5.35328140E-01  4.44634540E-01 -9.99672301E-02  3.99512830E-01
  7.00115470E-01  1.54328970E-01  5.35328140E-01  4.44634540E-01 -9.99672301E-02
  3.99512830E-01  7.00115470E-01  1.54328970E-01  5.35328140E-01  4.44634540E-01
 -9.99672301E-02  3.99512830E-01  7.00115470E-01  1.54328970E-01  5.35328141E-01
  4.44634541E-01 -9.99672284E-02  3.99512824E-01  7.00115459E-01  1.54328970E-01
  5.35328141E-01  4.44634541E-01 -9.99672284E-02  3.99512824E-01  7.00115459E-01
  1.54328970E-01  5.35328141E-01  4.44634541E-01 -9.99672284E-02  3.99512824E-01
  7.00115459E-01  1.54328970E-01  5.35328140E-01  4.44634540E-01 -9.99672301E-02
  3.99512830E-01  7.00115470E-01  1.54328971E-01  5.35328143E-01  4.44634542E-01
  1.54328971E-01  5.35328143E-01  4.44634542E-01  1.54328971E-01  5.35328143E-01
  4.44634542E-01  1.54328971E-01  5.35328143E-01  4.44634542E-01  1.54328970E-01
  5.35328140E-01  4.44634540E-01 -9.99672301E-02  3.99512830E-01  7.00115470E-01
  1.54328970E-01  5.35328140E-01  4.44634540E-01 -9.99672301E-02  3.99512830E-01
  7.00115470E-01  1.54328970E-01  5.35328141E-01  4.44634541E-01 -9.99672284E-02
  3.99512824E-01  7.00115459E-01  1.54328970E-01  5.35328140E-01  4.44634540E-01
 -9.99672301E-02  3.99512830E-01  7.00115470E-01  1.54328970E-01  5.35328141E-01
  4.44634541E-01 -9.99672284E-02  3.99512824E-01  7.00115459E-01  1.54328971E-01
  5.35328143E-01  4.44634542E-01  1.54328971E-01  5.35328143E-01  4.44634542E-01
  1.54328967E-01  5.35328142E-01  4.44634542E-01 -9.99672292E-02  3.99512826E-01
  7.00115469E-01 -2.19620369E-01  2.25595434E-01  9.00398426E-01  1.54328971E-01
  5.35328143E-01  4.44634542E-01  1.54328971E-01  5.35328143E-01  4.44634542E-01
  1.54328971E-01  5.35328143E-01  4.44634542E-01  1.54328971E-01  5.35328143E-01
  4.44634542E-01  1.54328971E-01  5.35328143E-01  4.44634542E-01  1.54328971E-01
  5.35328143E-01  4.44634542E-01  1.54328969E-01  5.35328136E-01  4.44634536E-01
 -9.99672287E-02  3.99512825E-01  7.00115461E-01  1.54328970E-01  5.35328140E-01
  4.44634540E-01 -9.99672301E-02  3.99512830E-01  7.00115470E-01  1.54328970E-01
  5.35328140E-01  4.44634540E-01 -9.99672301E-02  3.99512830E-01  7.00115470E-01
  1.54328970E-01  5.35328140E-01  4.44634540E-01 -9.99672301E-02  3.99512830E-01
  7.00115470E-01  1.54328971E-01  5.35328143E-01  4.44634542E-01  1.54328971E-01
  5.35328143E-01  4.44634542E-01  1.54328971E-01  5.35328143E-01  4.44634542E-01
  1.54328971E-01  5.35328143E-01  4.44634542E-01  1.54328971E-01  5.35328143E-01
  4.44634542E-01  1.54328971E-01  5.35328143E-01  4.44634542E-01  1.54328971E-01
  5.35328143E-01  4.44634542E-01  1.54328969E-01  5.35328136E-01  4.44634536E-01
 -9.99672287E-02  3.99512825E-01  7.00115461E-01  1.54328971E-01  5.35328143E-01
  4.44634542E-01  1.54328971E-01  5.35328143E-01  4.44634542E-01  1.54328971E-01
  5.35328143E-01  4.44634542E-01
P(S=P) Contraction coefficients            R   N=         267
  0.00000000E+00  0.00000000E+00  0.00000000E+00  1.55916272E-01  6.07683728E-01
  3.91957395E-01  0.00000000E+00  0.00000000E+00  0.00000000E+00  1.55916272E-01
  6.07683728E-01  3.91957395E-01  0.00000000E+00  0.00000000E+00  0.00000000E+00
  1.55916272E-01  6.07683728E-01  3.91957395E-01  0.00000000E+00  0.00000000E+00
  0.00000000E+00  1.55916269E-01  6.07683714E-01  3.91957386E-01  0.00000000E+00
  0.00000000E+00  0.00000000E+00  1.55916272E-01  6.07683728E-01  3.91957395E-01
  0.00000000E+00  0.00000000E+00  0.00000000E+00  1.55916272E-01  6.07683728E-01
  3.91957395E-01  0.00000000E+00  0.00000000E+00  0.00000000E+00  1.55916269E-01
  6.07683714E-01  3.91957386E-01  0.00000000E+00  0.00000000E+00  0.00000000E+00
  1.55916272E-01  6.07683728E-01  3.91957395E-01  0.00000000E+00  0.00000000E+00
  0.00000000E+00  1.55916272E-01  6.07683728E-01  3.91957395E-01  0.00000000E+00
  0.00000000E+00  0.00000000E+00  1.55916272E-01  6.07683728E-01  3.91957395E-01
  0.00000000E+00  0.00000000E+00  0.00000000E+00  1.55916272E-01  6.07683728E-01
  3.91957395E-01  0.00000000E+00  0.00000000E+00  0.00000000E+00  1.55916272E-01
  6.07683728E-01  3.91957395E-01  0.00000000E+00  0.00000000E+00  0.00000000E+00
  1.55916272E-01  6.07683728E-01  3.91957395E-01  0.00000000E+00  0.00000000E+00
  0.00000000E+00  1.55916272E-01  6.07683728E-01  3.91957395E-01  0.00000000E+00
  0.00000000E+00  0.00000000E+00  1.55916272E-01  6.07683728E-01  3.91957395E-01
  0.00000000E+00  0.00000000E+00  0.00000000E+00  1.55916272E-01  6.07683728E-01
  3.91957395E-01  0.00000000E+00  0.00000000E+00  0.00000000E+00  1.55916272E-01
  6.07683728E-01  3.91957395E-01  0.00000000E+00  0.00000000E+00  0.00000000E+00
  1.55916272E-01  6.07683728E-01  3.91957395E-01  0.00000000E+00  0.00000000E+00
  0.00000000E+00  1.55916269E-01  6.07683714E-01  3.91957386E-01  0.00000000E+00
  0.00000000E+00  0.00000000E+00  1.55916269E-01  6.07683714E-01  3.91957386E-01
  0.00000000E+00  0.00000000E+00  0.00000000E+00  1.55916269E-01  6.07683714E-01
  3.91957386E-01  0.00000000E+00  0.00000000E+00  0.00000000E+00  1.55916272E-01
  6.07683728E-01  3.91957395E-01  0.00000000E+00  0.00000000E+00  0.00000000E+00
  0.00000000E+00  0.00000000E+00  0.00000000E+00  0.00000000E+00  0.00000000E+00
  0.00000000E+00  0.00000000E+00  0.00000000E+00  0.00000000E+00  0.00000000E+00
  0.00000000E+00  0.00000000E+00  1.55916272E-01  6.07683728E-01  3.91957395E-01
  0.00000000E+00  0.00000000E+00  0.00000000E+00  1.55916272E-01  6.07683728E-01
  3.91957395E-01  0.00000000E+00  0.00000000E+00  0.00000000E+00  1.55916269E-01
  6.07683714E-01  3.91957386E-01  0.00000000E+00  0.00000000E+00  0.00000000E+00
  1.55916272E-01  6.07683728E-01  3.91957395E-01  0.00000000E+00  0.00000000E+00
  0.00000000E+00  1.55916269E-01  6.07683714E-01  3.91957386E-01  0.00000000E+00
  0.00000000E+00  0.00000000E+00  0.00000000E+00  0.00000000E+00  0.00000000E+00
  0.00000000E+00  0.00000000E+00  0.00000000E+00  1.55916275E-01  6.07683719E-01
  3.91957393E-01  1.05876043E-02  5.95167005E-01  4.62001012E-01  0.00000000E+00
  0.00000000E+00  0.00000000E+00  0.00000000E+00  0.00000000E+00  0.00000000E+00
  0.00000000E+00  0.00000000E+00  0.00000000E+00  0.00000000E+00  0.00000000E+00
  0.00000000E+00  0.00000000E+00  0.00000000E+00  0.00000000E+00  0.00000000E+00
  0.00000000E+00  0.00000000E+00  0.00000000E+00  0.00000000E+00  0.00000000E+00
  1.55916268E-01  6.07683714E-01  3.91957386E-01  0.00000000E+00  0.00000000E+00
  0.00000000E+00  1.55916272E-01  6.07683728E-01  3.91957395E-01  0.00000000E+00
  0.00000000E+00  0.00000000E+00  1.55916272E-01  6.07683728E-01  3.91957395E-01
  0.00000000E+00  0.00000000E+00  0.00000000E+00  1.55916272E-01  6.07683728E-01
  3.91957395E-01  0.00000000E+00  0.00000000E+00  0.00000000E+00  0.00000000E+00
  0.00000000E+00  0.00000000E+00  0.00000000E+00  0.00000000E+00  0.00000000E+00
  0.00000000E+00  0.00000000E+00  0.00000000E+00  0.00000000E+00  0.00000000E+00
  0.00000000E+00  0.00000000E+00  0.00000000E+00  0.00000000E+00  0.00000000E+00
  0.00000000E+00  0.00000000E+00  0.00000000E+00  0.00000000E+00  0.00000000E+00
  1.55916268E-01  6.07683714E-01  3.91957386E-01  0.00000000E+00  0.00000000E+00
  0.00000000E+00  0.00000000E+00  0.00000000E+00  0.00000000E+00  0.00000000E+00
  0.00000000E+00  0.00000000E+00
Coordinates of each shell                  R   N=         267
  9.12813331E+01  1.55588712E+02  7.33799574E+01  9.12813331E+01  1.55588712E+02
  7.33799574E+01  9.24586268E+01  1.53474100E+02  7.17415648E+01  9.24586268E+01
  1.53474100E+02  7.17415648E+01  9.29575220E+01  1.51196992E+02  7.33780696E+01
  9.29575220E+01  1.51196992E+02  7.33780696E+01  9.54557362E+01  1.50494010E+02
  7.39128564E+01  9.54557362E+01  1.50494010E+02  7.39128564E+01  9.61095833E+01
  1.47992018E+02  7.48747327E+01  9.61095833E+01  1.47992018E+02  7.48747327E+01
  9.49209437E+01  1.45788597E+02  7.33005889E+01  9.49209437E+01  1.45788597E+02
  7.33005889E+01  9.44239438E+01  1.43717456E+02  7.47745734E+01  9.44239438E+01
  1.43717456E+02  7.47745734E+01  9.40044246E+01  1.41306163E+02  7.36955417E+01
  9.40044246E+01  1.41306163E+02  7.36955417E+01  9.66651609E+01  1.40117529E+02
  7.33742844E+01  9.66651609E+01  1.40117529E+02  7.33742844E+01  9.69278329E+01
  1.37435997E+02  7.22328899E+01  9.69278329E+01  1.37435997E+02  7.22328899E+01
  9.83810341E+01  1.35483915E+02  7.33194843E+01  9.83810341E+01  1.35483915E+02
  7.33194843E+01  9.80484367E+01  1.33254036E+02  7.17434527E+01  9.80484367E+01
  1.33254036E+02  7.17434527E+01  9.86002367E+01  1.30638652E+02  7.22744619E+01
  9.86002367E+01  1.30638652E+02  7.22744619E+01  1.00102573E+02  1.29860094E+02
  7.45648138E+01  1.00102573E+02  1.29860094E+02  7.45648138E+01  9.97586445E+01
  1.30239921E+02  7.70006746E+01  9.97586445E+01  1.30239921E+02  7.70006746E+01
  9.78500173E+01  1.31481481E+02  7.83329277E+01  9.78500173E+01  1.31481481E+02
  7.83329277E+01  9.81164725E+01  1.31230142E+02  8.09861013E+01  9.81164725E+01
  1.31230142E+02  8.09861013E+01  1.00410594E+02  1.30164330E+02  8.21218305E+01
  1.00410594E+02  1.30164330E+02  8.21218305E+01  1.02073555E+02  1.28794283E+02
  8.06289450E+01  1.02073555E+02  1.28794283E+02  8.06289450E+01  1.01659709E+02
  1.28926562E+02  7.81212784E+01  1.01659709E+02  1.28926562E+02  7.81212784E+01
  1.03179043E+02  1.27596206E+02  7.65528019E+01  1.03179043E+02  1.27596206E+02
  7.65528019E+01  1.02296543E+02  1.28134770E+02  7.42548968E+01  1.02296543E+02
  1.28134770E+02  7.42548968E+01  1.03137471E+02  1.27314633E+02  7.25806032E+01
  1.00633582E+02  1.30156775E+02  8.41551758E+01  9.68352363E+01  1.32210904E+02
  8.22465486E+01  9.62947765E+01  1.32481146E+02  7.74504275E+01  9.76931701E+01
  1.28890663E+02  7.05567084E+01  9.76931701E+01  1.28890663E+02  7.05567084E+01
  9.62928868E+01  1.29886550E+02  6.84080879E+01  9.62928868E+01  1.29886550E+02
  6.84080879E+01  9.57051801E+01  1.32305396E+02  6.79961220E+01  9.57051801E+01
  1.32305396E+02  6.79961220E+01  9.64931959E+01  1.33968351E+02  6.97025447E+01
  9.64931959E+01  1.33968351E+02  6.97025447E+01  9.59754071E+01  1.36517590E+02
  6.99519885E+01  9.59754071E+01  1.36517590E+02  6.99519885E+01  9.50116506E+01
  1.37466244E+02  6.86065073E+01  9.57032922E+01  1.28535388E+02  6.69718923E+01
  9.83866995E+01  1.25651664E+02  7.08288233E+01  9.83866995E+01  1.25651664E+02
  7.08288233E+01  9.83866995E+01  1.25651664E+02  7.08288233E+01  9.93599085E+01
  1.35746587E+02  7.50996082E+01  9.75533341E+01  1.40072172E+02  7.52470049E+01
  9.77857647E+01  1.41421431E+02  7.22139964E+01  9.29839782E+01  1.41600957E+02
  7.19173056E+01  9.27647681E+01  1.40123197E+02  7.48652821E+01  9.42878855E+01
  1.43817613E+02  7.66813052E+01  9.48944875E+01  1.45762141E+02  7.09440985E+01
  9.48944875E+01  1.45762141E+02  7.09440985E+01  9.90518850E+01  1.47823823E+02
  7.47707958E+01  9.90518850E+01  1.47823823E+02  7.47707958E+01  1.00093122E+02
  1.50442987E+02  7.42454520E+01  1.00093122E+02  1.50442987E+02  7.42454520E+01
  9.77989928E+01  1.51741223E+02  7.30662629E+01  9.77989928E+01  1.51741223E+02
  7.30662629E+01  9.79841935E+01  1.51571154E+02  7.10083492E+01  9.78519052E+01
  1.53757563E+02  7.35481374E+01  1.01782539E+02  1.50524244E+02  7.30454721E+01
  1.00442723E+02  1.51251792E+02  7.61219500E+01  9.96188029E+01  1.46391420E+02
  7.33856247E+01  9.97473043E+01  1.47188879E+02  7.66170545E+01  9.54727418E+01
  1.47710445E+02  7.68268141E+01  9.11660579E+01  1.50038592E+02  7.43928506E+01
  9.11660579E+01  1.50038592E+02  7.43928506E+01  9.40100976E+01  1.54205426E+02
  7.05793795E+01  9.16743961E+01  1.55322262E+02  7.53962914E+01  8.92196419E+01
  1.55696424E+02  7.31872034E+01
Num ILSW                                   I              100
ILSW                                       I   N=         100
           0           0           0           0           2           0
           0           0           0           0           0          -1
           5           0           0           0           0           0
           0           0           0           0           0           0
           1           1           0           0           0           0
           0           0      100000           0          -1           0
           0           0           0           0           0           0
           0           0           0           1           0           0
           0 -2000000000           1           0           0           0
           0           0           4          52           0           0
           0           0           0           0           0           0
           0           0           0          55           0           1
           0           0           0           0           0           0
           0           0           0           0           0           0
           0           0           0           0           0           0
           0           0           0           0           0           0
           0           0           0           0
Virial Ratio                               R      0.200000000000000E+01
Total Energy                               R      0.000000000000000E+00
Alpha Orbital Energies                     R   N=         191
 -1.03701984E+02 -2.02742659E+01 -2.02202195E+01 -1.55230820E+01 -1.54309036E+01
 -1.54181666E+01 -1.53743282E+01 -1.53617647E+01 -1.53491956E+01 -1.53409088E+01
 -1.11510309E+01 -1.11272453E+01 -1.11167259E+01 -1.11139676E+01 -1.11132803E+01
 -1.11046671E+01 -1.11003187E+01 -1.10953121E+01 -1.10918119E+01 -1.10862386E+01
 -1.10860615E+01 -1.10854377E+01 -1.10821268E+01 -1.10761781E+01 -1.10751545E+01
 -1.10684809E+01 -1.10673902E+01 -1.10641102E+01 -1.10389097E+01 -1.10328454E+01